variables="x","cp"
zone, t="CFL3D"
 2.780639759E-16 6.246056035E-02
 7.999999798E-04 3.419305757E-02
 1.606264967E-03 2.316619642E-02
 2.418837277E-03 2.565171011E-02
 3.237759229E-03 2.546097524E-02
 4.063073546E-03 2.620007284E-02
 4.894822836E-03 2.666796930E-02
 5.733050406E-03 2.712990530E-02
 6.577799562E-03 2.749945410E-02
 7.429112680E-03 2.783025987E-02
 8.287033997E-03 2.812232263E-02
 9.151606821E-03 2.838756330E-02
 1.002287492E-02 2.862598188E-02
 1.090088207E-02 2.884651907E-02
 1.178567298E-02 2.904917486E-02
 1.267729141E-02 2.923394926E-02
 1.357578207E-02 2.940084226E-02
 1.448118873E-02 2.955283411E-02
 1.539355703E-02 2.969588526E-02
 1.631293073E-02 2.982403524E-02
 1.723935641E-02 2.994324453E-02
 1.817287691E-02 3.005351312E-02
 1.911354065E-02 3.015782125E-02
 2.006139047E-02 3.025318868E-02
 2.101647109E-02 3.034557588E-02
 2.197883092E-02 3.043200262E-02
 2.294851467E-02 3.051544912E-02
 2.392556891E-02 3.059293516E-02
 2.491003834E-02 3.067042120E-02
 2.590196952E-02 3.074492700E-02
 2.690140903E-02 3.081645258E-02
 2.790840343E-02 3.088499792E-02
 2.892299928E-02 3.095652349E-02
 2.994524129E-02 3.102506883E-02
 3.097517975E-02 3.109063394E-02
 3.201285750E-02 3.115917929E-02
 3.305832669E-02 3.122474439E-02
 3.411163017E-02 3.129329160E-02
 3.517281637E-02 3.135885671E-02
 3.624192998E-02 3.142740205E-02
 3.731902316E-02 3.149594739E-02
 3.840414062E-02 3.156449273E-02
 3.949733078E-02 3.163303807E-02
 4.059864208E-02 3.170158342E-02
 4.170811921E-02 3.177310899E-02
 4.282581061E-02 3.184463456E-02
 4.395176470E-02 3.191616014E-02
 4.508602992E-02 3.198768571E-02
 4.622865468E-02 3.206219152E-02
 4.737968370E-02 3.213669732E-02
 4.853916913E-02 3.221418336E-02
 4.970715567E-02 3.229166940E-02
 5.088369548E-02 3.237213567E-02
 5.206883326E-02 3.245260194E-02
 5.326262116E-02 3.253306821E-02
 5.446510017E-02 3.261651471E-02
 5.567632616E-02 3.269996122E-02
 5.689634383E-02 3.278638795E-02
 5.812519789E-02 3.287579492E-02
 5.936294422E-02 3.296520188E-02
 6.060962752E-02 3.305460885E-02
 6.186529621E-02 3.314699605E-02
 6.312999874E-02 3.324236348E-02
 6.440377980E-02 3.333773091E-02
 6.568669528E-02 3.343607858E-02
 6.697878242E-02 3.353740647E-02
 6.828010082E-02 3.363873437E-02
 6.959069520E-02 3.374006227E-02
 7.091061771E-02 3.384735063E-02
 7.223990560E-02 3.395463899E-02
 7.357861102E-02 3.406192735E-02
 7.492678612E-02 3.417517617E-02
 7.628447562E-02 3.428842500E-02
 7.765173167E-02 3.440167382E-02
 7.902859896E-02 3.452088311E-02
 8.041512221E-02 3.464009240E-02
 8.181135356E-02 3.476228192E-02
 8.321733773E-02 3.488745168E-02
 8.463312685E-02 3.501262143E-02
 8.605875820E-02 3.514077142E-02
 8.749429882E-02 3.527190164E-02
 8.893977106E-02 3.540601209E-02
 9.039524198E-02 3.554310277E-02
 9.186074883E-02 3.568019345E-02
 9.333634377E-02 3.582324460E-02
 9.482206404E-02 3.596629575E-02
 9.631796926E-02 3.611232713E-02
 9.782408923E-02 3.626133874E-02
 9.934049100E-02 3.641333058E-02
 1.008672044E-01 3.656830266E-02
 1.024042815E-01 3.672625497E-02
 1.039517671E-01 3.688718751E-02
 1.055097058E-01 3.705110028E-02
 1.070781425E-01 3.721501306E-02
 1.086571217E-01 3.738488629E-02
 1.102466956E-01 3.755773976E-02
 1.118469015E-01 3.773357347E-02
 1.134577915E-01 3.791238740E-02
 1.150793955E-01 3.809418157E-02
 1.167117655E-01 3.828193620E-02
 1.183549538E-01 3.846969083E-02
 1.200089902E-01 3.866340593E-02
 1.216739267E-01 3.885712102E-02
 1.233498007E-01 3.905679658E-02
 1.250366569E-01 3.926243261E-02
 1.267345399E-01 3.946806863E-02
 1.284434944E-01 3.967966512E-02
 1.301635504E-01 3.989424184E-02
 1.318947524E-01 4.011477903E-02
 1.336371601E-01 4.033829644E-02
 1.353907883E-01 4.056479409E-02
 1.371556818E-01 4.079725221E-02
 1.389319003E-01 4.103269055E-02
 1.407194734E-01 4.127408937E-02
 1.425184160E-01 4.151846841E-02
 1.443288028E-01 4.176880792E-02
 1.461506635E-01 4.202212766E-02
 1.479840279E-01 4.228140786E-02
 1.498289257E-01 4.254664853E-02
 1.516854167E-01 4.281486943E-02
 1.535535157E-01 4.308905080E-02
 1.554332823E-01 4.336919263E-02
 1.573247313E-01 4.365529492E-02
 1.592279077E-01 4.394735768E-02
 1.611428410E-01 4.424538091E-02
 1.630695611E-01 4.454638436E-02
 1.650081277E-01 4.485632852E-02
 1.669585407E-01 4.517223313E-02
 1.689208597E-01 4.549409822E-02
 1.708951145E-01 4.582192376E-02
 1.728813201E-01 4.615570977E-02
 1.748795062E-01 4.649545625E-02
 1.768897325E-01 4.684414342E-02
 1.789119989E-01 4.720177129E-02
 1.809463501E-01 4.756237939E-02
 1.829928160E-01 4.793490842E-02
 1.850514114E-01 4.831339791E-02
 1.871221811E-01 4.869784787E-02
 1.892051548E-01 4.909123853E-02
 1.913003325E-01 4.949655011E-02
 1.934077740E-01 4.990782216E-02
 1.955274791E-01 5.032803491E-02
 1.976594776E-01 5.075718835E-02
 1.998037994E-01 5.119528249E-02
 2.019604743E-01 5.164529756E-02
 2.041295022E-01 5.210425332E-02
 2.063109279E-01 5.257214978E-02
 2.085047662E-01 5.305196717E-02
 2.107110322E-01 5.354072526E-02
 2.129297554E-01 5.404438451E-02
 2.151609361E-01 5.455698445E-02
 2.174046040E-01 5.508150533E-02
 2.196607888E-01 5.562092736E-02
 2.219294906E-01 5.616929010E-02
 2.242107242E-01 5.673255399E-02
 2.265045196E-01 5.731071904E-02
 2.288108766E-01 5.790080503E-02
 2.311298251E-01 5.850877240E-02
 2.334613651E-01 5.912866071E-02
 2.358054966E-01 5.976345018E-02
 2.381622493E-01 6.041612104E-02
 2.405316383E-01 6.108667329E-02
 2.429136485E-01 6.177212670E-02
 2.453083098E-01 6.247844175E-02
 2.477156222E-01 6.319965422E-02
 2.501356006E-01 6.394471228E-02
 2.525682449E-01 6.470765173E-02
 2.550135255E-01 6.549145281E-02
 2.574715018E-01 6.629611552E-02
 2.599421442E-01 6.712462008E-02
 2.624254823E-01 6.797696650E-02
 2.649214864E-01 6.885315478E-02
 2.674301565E-01 6.975616515E-02
 2.699515224E-01 7.068599761E-02
 2.724855542E-01 7.164563239E-02
 2.750322521E-01 7.263506949E-02
 2.775916159E-01 7.365430892E-02
 2.801636457E-01 7.470633090E-02
 2.827483416E-01 7.579411566E-02
 2.853456736E-01 7.692064345E-02
 2.879556417E-01 7.808293402E-02
 2.905782461E-01 7.928694785E-02
 2.932134569E-01 8.053566515E-02
 2.958613038E-01 8.183206618E-02
 2.985217273E-01 8.317913115E-02
 3.011947274E-01 8.457984030E-02
 3.038803041E-01 8.604015410E-02
 3.065784574E-01 8.756603301E-02
 3.092890978E-01 8.916045725E-02
 3.120122850E-01 9.082342684E-02
 3.147479594E-01 9.255792201E-02
 3.174961209E-01 9.436990321E-02
 3.202567399E-01 9.625340998E-02
 3.230297565E-01 9.821142256E-02
 3.258152306E-01 1.002469212E-01
 3.286130428E-01 1.023539454E-01
 3.314232230E-01 1.045324951E-01
 3.342457414E-01 1.067825705E-01
 3.370805681E-01 1.091011912E-01
 3.399276435E-01 1.114823967E-01
 3.427869678E-01 1.139291674E-01
 3.456584811E-01 1.164325625E-01
 3.485421836E-01 1.189985424E-01
 3.514380157E-01 1.216122061E-01
 3.543459177E-01 1.242675930E-01
 3.572659194E-01 1.269617230E-01
 3.601979017E-01 1.297035366E-01
 3.631418645E-01 1.324751526E-01
 3.660977483E-01 1.352586895E-01
 3.690654933E-01 1.380630881E-01
 3.720450699E-01 1.408972889E-01
 3.750364482E-01 1.437195688E-01
 3.780395389E-01 1.465269476E-01
 3.810542822E-01 1.493611485E-01
 3.840806186E-01 1.521476656E-01
 3.871185184E-01 1.549103409E-01
 3.901678622E-01 1.576670557E-01
 3.932286203E-01 1.603403240E-01
 3.963007331E-01 1.630076319E-01
 3.993840814E-01 1.655944735E-01
 4.024785757E-01 1.681068093E-01
 4.055841863E-01 1.705684811E-01
 4.087007940E-01 1.729198843E-01
 4.118283093E-01 1.752027422E-01
 4.149666429E-01 1.773693711E-01
 4.181156456E-01 1.794346720E-01
 4.212752879E-01 1.813807636E-01
 4.244453907E-01 1.831927449E-01
 4.276258647E-01 1.848825365E-01
 4.308166206E-01 1.864024550E-01
 4.340174794E-01 1.878031641E-01
 4.372283220E-01 1.890041977E-01
 4.404490292E-01 1.900562197E-01
 4.436794519E-01 1.909353882E-01
 4.469194710E-01 1.915731579E-01
 4.501688778E-01 1.920887381E-01
 4.534275532E-01 1.923301369E-01
 4.566953778E-01 1.923867613E-01
 4.599721134E-01 1.922377497E-01
 4.632576406E-01 1.917877346E-01
 4.665518105E-01 1.911708266E-01
 4.698544145E-01 1.902856976E-01
 4.731652737E-01 1.890787035E-01
 4.764842689E-01 1.876809746E-01
 4.798111618E-01 1.859911829E-01
 4.831458032E-01 1.839735657E-01
 4.864880145E-01 1.816847473E-01
 4.898376465E-01 1.791366488E-01
 4.931944907E-01 1.762368828E-01
 4.965583980E-01 1.729943901E-01
 4.999292195E-01 1.694747359E-01
 5.033067465E-01 1.656302363E-01
 5.066908002E-01 1.614072472E-01
 5.100812912E-01 1.568325907E-01
 5.134780407E-01 1.519211680E-01
 5.168808699E-01 1.466759592E-01
 5.202897191E-01 1.410313994E-01
 5.237043500E-01 1.349815279E-01
 5.271247625E-01 1.285859495E-01
 5.305507779E-01 1.217969805E-01
 5.339823365E-01 1.146384627E-01
 5.374191999E-01 1.070537716E-01
 5.408614874E-01 9.904290736E-02
 5.443089604E-01 9.065057337E-02
 5.477616787E-01 8.184696734E-02
 5.512195230E-01 7.262612879E-02
 5.546824932E-01 6.299699843E-02
 5.581504703E-01 5.292679742E-02
 5.616235137E-01 4.242147878E-02
 5.651015639E-01 3.150786832E-02
 5.685847402E-01 2.016808279E-02
 5.720728636E-01 8.405106142E-03
 5.755661130E-01 -3.784043482E-03
 5.790644884E-01 -1.639340632E-02
 5.825679898E-01 -2.942000143E-02
 5.860767365E-01 -4.287276790E-02
 5.895906687E-01 -5.673382804E-02
 5.931099653E-01 -7.099126279E-02
 5.966346264E-01 -8.564804494E-02
 6.001648307E-01 -1.006892771E-01
 6.037005186E-01 -1.161030382E-01
 6.072419286E-01 -1.318833679E-01
 6.107890606E-01 -1.480123848E-01
 6.143419743E-01 -1.644751877E-01
 6.179008484E-01 -1.812538952E-01
 6.214657426E-01 -1.983276457E-01
 6.250367761E-01 -2.156725973E-01
 6.286140084E-01 -2.332708687E-01
 6.321974993E-01 -2.510926425E-01
 6.357874274E-01 -2.691051662E-01
 6.393837333E-01 -2.872816026E-01
 6.429865360E-01 -3.055891693E-01
 6.465959549E-01 -3.239861429E-01
 6.502119303E-01 -3.424367607E-01
 6.538345814E-01 -3.608992994E-01
 6.574639082E-01 -3.793290555E-01
 6.610997915E-01 -3.976783454E-01
 6.647424102E-01 -4.158994853E-01
 6.683915854E-01 -4.339418113E-01
 6.720473170E-01 -4.517516792E-01
 6.757094860E-01 -4.692694843E-01
 6.793780923E-01 -4.864445627E-01
 6.830529571E-01 -5.032143593E-01
 6.867339015E-01 -5.195251703E-01
 6.904208660E-01 -5.353114605E-01
 6.941135526E-01 -5.505136251E-01
 6.978118420E-01 -5.650988817E-01
 7.015154362E-01 -5.789182186E-01
 7.052240968E-01 -5.919269323E-01
 7.089375854E-01 -6.041518450E-01
 7.126555443E-01 -6.154946089E-01
 7.163776159E-01 -6.259105206E-01
 7.201035023E-01 -6.353369951E-01
 7.238328457E-01 -6.437650919E-01
 7.275652289E-01 -6.511054039E-01
 7.313002348E-01 -6.572506428E-01
 7.350375056E-01 -6.622484922E-01
 7.387765050E-01 -6.661168337E-01
 7.425169349E-01 -6.688020229E-01
 7.462582588E-01 -6.702742577E-01
 7.500000000E-01 -6.706140041E-01
 7.537417412E-01 -6.696305275E-01
 7.574830651E-01 -6.673566103E-01
 7.612234950E-01 -6.639770269E-01
 7.649624944E-01 -6.594172716E-01
 7.686997652E-01 -6.537071466E-01
 7.724347711E-01 -6.469032764E-01
 7.761671543E-01 -6.389997005E-01
 7.798964977E-01 -6.299666166E-01
 7.836223841E-01 -6.199411154E-01
 7.873444557E-01 -6.090006828E-01
 7.910624146E-01 -5.971691608E-01
 7.947759032E-01 -5.845031738E-01
 7.984845638E-01 -5.710474253E-01
 8.021881580E-01 -5.569092035E-01
 8.058864474E-01 -5.420706272E-01
 8.095791340E-01 -5.265972614E-01
 8.132660985E-01 -5.106321573E-01
 8.169470429E-01 -4.942021072E-01
 8.206219077E-01 -4.773757160E-01
 8.242905140E-01 -4.602095783E-01
 8.279526830E-01 -4.427662790E-01
 8.316084146E-01 -4.251024425E-01
 8.352575898E-01 -4.072806537E-01
 8.389002085E-01 -3.893485963E-01
 8.425360918E-01 -3.713599145E-01
 8.461654186E-01 -3.533682525E-01
 8.497880697E-01 -3.354212940E-01
 8.534040451E-01 -3.175577819E-01
 8.570134640E-01 -2.998254001E-01
 8.606162667E-01 -2.822599113E-01
 8.642125726E-01 -2.648970783E-01
 8.678025007E-01 -2.477696985E-01
 8.713859916E-01 -2.309105247E-01
 8.749632239E-01 -2.143404335E-01
 8.785342574E-01 -1.980862468E-01
 8.820991516E-01 -1.821718067E-01
 8.856580257E-01 -1.666120142E-01
 8.892109394E-01 -1.514217705E-01
 8.927580714E-01 -1.366159767E-01
 8.962994814E-01 -1.222035736E-01
 8.998351693E-01 -1.081964821E-01
 9.033653736E-01 -9.459470212E-02
 9.068900347E-01 -8.141015470E-02
 9.104093313E-01 -6.863687932E-02
 9.139232635E-01 -5.628083274E-02
 9.174320102E-01 -4.433606192E-02
 9.209355116E-01 -3.280554339E-02
 9.244338870E-01 -2.168629877E-02
 9.279271364E-01 -1.097236387E-02
 9.314152598E-01 -6.547995727E-04
 9.348984361E-01 9.269373491E-03
 9.383764863E-01 1.880909689E-02
 9.418495297E-01 2.796735056E-02
 9.453175068E-01 3.676797822E-02
 9.487804770E-01 4.519905522E-02
 9.522383213E-01 5.326356366E-02
 9.556910396E-01 6.099130586E-02
 9.591385126E-01 6.837929785E-02
 9.625808001E-01 7.543052733E-02
 9.660176635E-01 8.217777312E-02
 9.694492221E-01 8.860315382E-02
 9.728752375E-01 9.470368922E-02
 9.762956500E-01 1.005151421E-01
 9.797102809E-01 1.060226113E-01
 9.831191301E-01 1.112678200E-01
 9.865219593E-01 1.162239462E-01
 9.899187088E-01 1.208790690E-01
 9.933091998E-01 1.252778918E-01
 9.966932535E-01 1.294233948E-01
 1.000070810E+00 1.333125979E-01
 1.003441572E+00 1.369276196E-01
 1.006805539E+00 1.402893215E-01
 1.010162354E+00 1.434334666E-01
 1.013512015E+00 1.463302523E-01
 1.016854167E+00 1.489647776E-01
 1.020188808E+00 1.513787657E-01
 1.023515701E+00 1.535900980E-01
 1.026834726E+00 1.555540711E-01
 1.030145645E+00 1.572796255E-01
 1.033448219E+00 1.588382870E-01
 1.036742330E+00 1.601585299E-01
 1.040027857E+00 1.612522751E-01
 1.043304682E+00 1.621910483E-01
 1.046572447E+00 1.628943831E-01
 1.049831152E+00 1.634129435E-01
 1.053080559E+00 1.637675911E-01
 1.056320548E+00 1.638957411E-01
 1.059551001E+00 1.638957411E-01
 1.062771678E+00 1.636930853E-01
 1.065982580E+00 1.633294970E-01
 1.069183350E+00 1.628168970E-01
 1.072374105E+00 1.621314436E-01
 1.075554609E+00 1.613208205E-01
 1.078724742E+00 1.603522450E-01
 1.081884384E+00 1.592584997E-01
 1.085033417E+00 1.580336243E-01
 1.088171721E+00 1.566895396E-01
 1.091299176E+00 1.552351862E-01
 1.094415784E+00 1.536646038E-01
 1.097521424E+00 1.520105749E-01
 1.100615978E+00 1.502462775E-01
 1.103699327E+00 1.484134346E-01
 1.106771350E+00 1.465001255E-01
 1.109832168E+00 1.445003897E-01
 1.112881541E+00 1.424678713E-01
 1.115919352E+00 1.403519064E-01
 1.118945718E+00 1.382091194E-01
 1.121960521E+00 1.360246092E-01
 1.124963522E+00 1.337864548E-01
 1.127954960E+00 1.315483004E-01
 1.130934477E+00 1.292833239E-01
 1.133902311E+00 1.269915253E-01
 1.136858106E+00 1.247056872E-01
 1.139802098E+00 1.224228293E-01
 1.142734051E+00 1.201399714E-01
 1.145654082E+00 1.178660542E-01
 1.148561954E+00 1.156129986E-01
 1.151457787E+00 1.133867651E-01
 1.154341459E+00 1.111784130E-01
 1.157212973E+00 1.090028435E-01
 1.160072327E+00 1.068660170E-01
 1.162919402E+00 1.047679335E-01
 1.165754199E+00 1.027145535E-01
 1.168576717E+00 1.007028967E-01
 1.171386957E+00 9.874190390E-02
 1.174184799E+00 9.682859480E-02
 1.176970243E+00 9.497191012E-02
 1.179743290E+00 9.316588938E-02
 1.182503939E+00 9.141649306E-02
 1.185252070E+00 8.972074091E-02
 1.187987685E+00 8.808161318E-02
 1.190710902E+00 8.649910986E-02
 1.193421602E+00 8.497025073E-02
 1.196119666E+00 8.349503577E-02
 1.198805213E+00 8.207048476E-02
 1.201478243E+00 8.069659770E-02
 1.204138756E+00 7.936741412E-02
 1.206786513E+00 7.808293402E-02
 1.209421754E+00 7.683719695E-02
 1.212044358E+00 7.563020289E-02
 1.214654326E+00 7.445897162E-02
 1.217251658E+00 7.332350314E-02
 1.219836354E+00 7.222081721E-02
 1.222408414E+00 7.114793360E-02
 1.224967718E+00 7.010485232E-02
 1.227514505E+00 6.909157336E-02
 1.230048537E+00 6.810511649E-02
 1.232569814E+00 6.714548171E-02
 1.235078573E+00 6.621266901E-02
 1.237574458E+00 6.530369818E-02
 1.240057826E+00 6.441558897E-02
 1.242528439E+00 6.355132163E-02
 1.244986415E+00 6.271089613E-02
 1.247431755E+00 6.188835576E-02
 1.249864459E+00 6.108667329E-02
 1.252284408E+00 6.030585244E-02
 1.254691720E+00 5.954291299E-02
 1.257086396E+00 5.879487470E-02
 1.259468317E+00 5.806769803E-02
 1.261837721E+00 5.735542253E-02
 1.264194489E+00 5.666102841E-02
 1.266538620E+00 5.598153546E-02
 1.268870234E+00 5.531694368E-02
 1.271189094E+00 5.466725305E-02
 1.273495436E+00 5.403246358E-02
 1.275789261E+00 5.340959504E-02
 1.278070450E+00 5.280162767E-02
 1.280339241E+00 5.220558122E-02
 1.282595396E+00 5.162443593E-02
 1.284839034E+00 5.105223134E-02
 1.287070274E+00 5.049492791E-02
 1.289288998E+00 4.994656518E-02
 1.291495204E+00 4.941012338E-02
 1.293689013E+00 4.888262227E-02
 1.295870543E+00 4.836704209E-02
 1.298039556E+00 4.786040261E-02
 1.300196171E+00 4.736568406E-02
 1.302340508E+00 4.687990621E-02
 1.304472566E+00 4.640306905E-02
 1.306592226E+00 4.593517259E-02
 1.308699608E+00 4.547621682E-02
 1.310794830E+00 4.502322152E-02
 1.312877774E+00 4.458214715E-02
 1.314948559E+00 4.414703324E-02
 1.317007184E+00 4.372086003E-02
 1.319053650E+00 4.330064729E-02
 1.321087956E+00 4.288937524E-02
 1.323110223E+00 4.248704389E-02
 1.325120449E+00 4.208769277E-02
 1.327118635E+00 4.169728234E-02
 1.329104900E+00 4.131283239E-02
 1.331079125E+00 4.093732312E-02
 1.333041430E+00 4.056479409E-02
 1.334991932E+00 4.020120576E-02
 1.336930394E+00 3.984059766E-02
 1.338857174E+00 3.948893026E-02
 1.340772152E+00 3.914024308E-02
 1.342675328E+00 3.880049661E-02
 1.344566703E+00 3.846373037E-02
 1.346446514E+00 3.813292459E-02
 1.348314643E+00 3.780807927E-02
 1.350171089E+00 3.748621419E-02
 1.352015972E+00 3.717030957E-02
 1.353849292E+00 3.686036542E-02
 1.355671167E+00 3.655340150E-02
 1.357481599E+00 3.624941781E-02
 1.359280586E+00 3.595437482E-02
 1.361068130E+00 3.565933183E-02
 1.362844348E+00 3.537024930E-02
 1.364609241E+00 3.508712724E-02
 1.366362810E+00 3.480698541E-02
 1.368105292E+00 3.452982381E-02
 1.369836450E+00 3.425564244E-02
 1.371556520E+00 3.398742154E-02
 1.373265505E+00 3.372218087E-02
 1.374963284E+00 3.345992044E-02
 1.376650214E+00 3.320064023E-02
 1.378326058E+00 3.294732049E-02
 1.379991055E+00 3.269400075E-02
 1.381645083E+00 3.244664147E-02
 1.383288264E+00 3.220226243E-02
 1.384920597E+00 3.196086362E-02
 1.386542201E+00 3.172244504E-02
 1.388153076E+00 3.148402646E-02
 1.389753342E+00 3.125156835E-02
 1.391342878E+00 3.102208860E-02
 1.392921805E+00 3.079261072E-02
 1.394490242E+00 3.056909330E-02
 1.396048188E+00 3.034557588E-02
 1.397595763E+00 3.012801893E-02
 1.399132848E+00 2.991046198E-02
 1.400659561E+00 2.969588526E-02
 1.402175903E+00 2.948130853E-02
 1.403681993E+00 2.927269228E-02
 1.405177951E+00 2.906407602E-02
 1.406663656E+00 2.885844000E-02
 1.408139229E+00 2.865578420E-02
 1.409604788E+00 2.845312841E-02
 1.411060214E+00 2.825345285E-02
 1.412505746E+00 2.805675752E-02
 1.413941264E+00 2.786006220E-02
 1.415366888E+00 2.766634710E-02
 1.416782618E+00 2.747561224E-02
 1.418188691E+00 2.728487737E-02
 1.419584870E+00 2.709712274E-02
 1.420971394E+00 2.690936811E-02
 1.422348261E+00 2.672459371E-02
 1.423715472E+00 2.654279955E-02
 1.425073266E+00 2.636100538E-02
 1.426421404E+00 2.617921121E-02
 1.427760124E+00 2.600039728E-02
 1.429089427E+00 2.582158335E-02
 1.430409312E+00 2.564574964E-02
 1.431719899E+00 2.547289617E-02
 1.433021188E+00 2.529706247E-02
 1.434313297E+00 2.512420900E-02
 1.435596228E+00 2.495433576E-02
 1.436869979E+00 2.478446253E-02
 1.438134670E+00 2.461458929E-02
 1.439390421E+00 2.444471605E-02
 1.440637112E+00 2.427782305E-02
 1.441874743E+00 2.411093004E-02
 1.443103671E+00 2.394403704E-02
 1.444323659E+00 2.378012426E-02
 1.445534945E+00 2.361621149E-02
 1.446737409E+00 2.345229872E-02
 1.447931170E+00 2.328838594E-02
 1.449116349E+00 2.312745340E-02
 1.450292826E+00 2.296354063E-02
 1.451460838E+00 2.280260809E-02
 1.452620268E+00 2.264167555E-02
 1.453771353E+00 2.248074301E-02
 1.454913974E+00 2.231981046E-02
 1.456048250E+00 2.216185816E-02
 1.457174182E+00 2.200092562E-02
 1.458291888E+00 2.183999307E-02
 1.459401369E+00 2.167906053E-02
 1.460502625E+00 2.151812799E-02
 1.461595893E+00 2.136017568E-02
 1.462680936E+00 2.119924314E-02
 1.463758111E+00 2.103533037E-02
 1.464827180E+00 2.087439783E-02
 1.465888381E+00 2.071346529E-02
 1.466941714E+00 2.054955252E-02
 1.467987180E+00 2.038563974E-02
 1.469024777E+00 2.022172697E-02
 1.470054746E+00 2.005483396E-02
 1.471076965E+00 1.988794096E-02
 1.472091556E+00 1.971806772E-02
 1.473098636E+00 1.954819448E-02
 1.474098086E+00 1.937534101E-02
 1.475089908E+00 1.919950731E-02
 1.476074457E+00 1.902367361E-02
 1.477051497E+00 1.884485967E-02
 1.478021145E+00 1.866008528E-02
 1.478983521E+00 1.847531088E-02
 1.479938626E+00 1.828457601E-02
 1.480886459E+00 1.809086092E-02
 1.481827140E+00 1.789118536E-02
 1.482760668E+00 1.768852957E-02
 1.483687043E+00 1.747693308E-02
 1.484606385E+00 1.725937612E-02
 1.485518813E+00 1.703287847E-02
 1.486424208E+00 1.679744013E-02
 1.487322688E+00 1.655008085E-02
 1.488214374E+00 1.628782041E-02
 1.489099145E+00 1.601065882E-02
 1.489977121E+00 1.571561582E-02
 1.490848422E+00 1.540269144E-02
 1.491712928E+00 1.506890543E-02
 1.492570877E+00 1.471723802E-02
 1.493422151E+00 1.432384737E-02
 1.494266987E+00 1.384402998E-02
 1.495105147E+00 1.316751726E-02
 1.495936871E+00 1.217509992E-02
 1.496762276E+00 1.083995588E-02
 1.497581124E+00 9.391563013E-03
 1.498393774E+00 8.574979380E-03
 1.499199986E+00 7.496135775E-03
 1.500000000E+00 8.285896853E-03
zone, t="FUN3D"
 2.780639759E-16 4.736861214E-02
 7.999999798E-04 1.857202873E-02
 1.606264967E-03 2.659515664E-02
 2.418837277E-03 2.450730838E-02
 3.237759229E-03 2.611851133E-02
 4.063073546E-03 2.634038590E-02
 4.894822836E-03 2.696907707E-02
 5.733050406E-03 2.730201557E-02
 6.577799562E-03 2.766637690E-02
 7.429112680E-03 2.795393951E-02
 8.287033997E-03 2.822807245E-02
 9.151606821E-03 2.847088128E-02
 1.002287492E-02 2.869528159E-02
 1.090088207E-02 2.889892086E-02
 1.178567298E-02 2.908538282E-02
 1.267729141E-02 2.925544605E-02
 1.357578207E-02 2.941108495E-02
 1.448118873E-02 2.955372073E-02
 1.539355703E-02 2.968491241E-02
 1.631293073E-02 2.980600297E-02
 1.723935641E-02 2.991827577E-02
 1.817287691E-02 3.002288938E-02
 1.911354065E-02 3.012089059E-02
 2.006139047E-02 3.021320328E-02
 2.101647109E-02 3.030064143E-02
 2.197883092E-02 3.038392588E-02
 2.294851467E-02 3.046369739E-02
 2.392556891E-02 3.054052033E-02
 2.491003834E-02 3.061487712E-02
 2.590196952E-02 3.068720736E-02
 2.690140903E-02 3.075789101E-02
 2.790840343E-02 3.082725964E-02
 2.892299928E-02 3.089560755E-02
 2.994524129E-02 3.096319363E-02
 3.097517975E-02 3.103024885E-02
 3.201285750E-02 3.109697811E-02
 3.305832669E-02 3.116356581E-02
 3.411163017E-02 3.123017587E-02
 3.517281637E-02 3.129695728E-02
 3.624192998E-02 3.136403859E-02
 3.731902316E-02 3.143154830E-02
 3.840414062E-02 3.149959072E-02
 3.949733078E-02 3.156826645E-02
 4.059864208E-02 3.163766861E-02
 4.170811921E-02 3.170787916E-02
 4.282581061E-02 3.177897632E-02
 4.395176470E-02 3.185103461E-02
 4.508602992E-02 3.192411736E-02
 4.622865468E-02 3.199828789E-02
 4.737968370E-02 3.207360208E-02
 4.853916913E-02 3.215011954E-02
 4.970715567E-02 3.222788870E-02
 5.088369548E-02 3.230695799E-02
 5.206883326E-02 3.238737211E-02
 5.326262116E-02 3.246917948E-02
 5.446510017E-02 3.255242482E-02
 5.567632616E-02 3.263714537E-02
 5.689634383E-02 3.272338212E-02
 5.812519789E-02 3.281117603E-02
 5.936294422E-02 3.290056065E-02
 6.060962752E-02 3.299158067E-02
 6.186529621E-02 3.308426589E-02
 6.312999874E-02 3.317866102E-02
 6.440377980E-02 3.327479959E-02
 6.568669528E-02 3.337271512E-02
 6.697878242E-02 3.347244114E-02
 6.828010082E-02 3.357402235E-02
 6.959069520E-02 3.367748857E-02
 7.091061771E-02 3.378287330E-02
 7.223990560E-02 3.389021382E-02
 7.357861102E-02 3.399955109E-02
 7.492678612E-02 3.411091492E-02
 7.628447562E-02 3.422434628E-02
 7.765173167E-02 3.433987871E-02
 7.902859896E-02 3.445755318E-02
 8.041512221E-02 3.457740322E-02
 8.181135356E-02 3.469947353E-02
 8.321733773E-02 3.482379764E-02
 8.463312685E-02 3.495042026E-02
 8.605875820E-02 3.507937491E-02
 8.749429882E-02 3.521071002E-02
 8.893977106E-02 3.534446284E-02
 9.039524198E-02 3.548067808E-02
 9.186074883E-02 3.561939672E-02
 9.333634377E-02 3.576067090E-02
 9.482206404E-02 3.590453416E-02
 9.631796926E-02 3.605104610E-02
 9.782408923E-02 3.620024398E-02
 9.934049100E-02 3.635217994E-02
 1.008672044E-01 3.650690615E-02
 1.024042815E-01 3.666447476E-02
 1.039517671E-01 3.682493418E-02
 1.055097058E-01 3.698833659E-02
 1.070781425E-01 3.715474531E-02
 1.086571217E-01 3.732420877E-02
 1.102466956E-01 3.749678656E-02
 1.118469015E-01 3.767253831E-02
 1.134577915E-01 3.785152733E-02
 1.150793955E-01 3.803381696E-02
 1.167117655E-01 3.821946681E-02
 1.183549538E-01 3.840854391E-02
 1.200089902E-01 3.860111907E-02
 1.216739267E-01 3.879725933E-02
 1.233498007E-01 3.899703920E-02
 1.250366569E-01 3.920052946E-02
 1.267345399E-01 3.940780461E-02
 1.284434944E-01 3.961894661E-02
 1.301635504E-01 3.983403370E-02
 1.318947524E-01 4.005314782E-02
 1.336371601E-01 4.027637467E-02
 1.353907883E-01 4.050379992E-02
 1.371556818E-01 4.073551670E-02
 1.389319003E-01 4.097161442E-02
 1.407194734E-01 4.121218994E-02
 1.425184160E-01 4.145734012E-02
 1.443288028E-01 4.170716926E-02
 1.461506635E-01 4.196177796E-02
 1.479840279E-01 4.222127795E-02
 1.498289257E-01 4.248577729E-02
 1.516854167E-01 4.275539145E-02
 1.535535157E-01 4.303023592E-02
 1.554332823E-01 4.331043735E-02
 1.573247313E-01 4.359612241E-02
 1.592279077E-01 4.388741404E-02
 1.611428410E-01 4.418445379E-02
 1.630695611E-01 4.448737949E-02
 1.650081277E-01 4.479632899E-02
 1.669585407E-01 4.511145502E-02
 1.689208597E-01 4.543291032E-02
 1.708951145E-01 4.576085508E-02
 1.728813201E-01 4.609544948E-02
 1.748795062E-01 4.643686861E-02
 1.768897325E-01 4.678528011E-02
 1.789119989E-01 4.714087397E-02
 1.809463501E-01 4.750383645E-02
 1.829928160E-01 4.787436500E-02
 1.850514114E-01 4.825265706E-02
 1.871221811E-01 4.863892496E-02
 1.892051548E-01 4.903338850E-02
 1.913003325E-01 4.943627492E-02
 1.934077740E-01 4.984781519E-02
 1.955274791E-01 5.026825890E-02
 1.976594776E-01 5.069785565E-02
 1.998037994E-01 5.113686994E-02
 2.019604743E-01 5.158557743E-02
 2.041295022E-01 5.204426125E-02
 2.063109279E-01 5.251322314E-02
 2.085047662E-01 5.299277231E-02
 2.107110322E-01 5.348322913E-02
 2.129297554E-01 5.398493260E-02
 2.151609361E-01 5.449823290E-02
 2.174046040E-01 5.502349511E-02
 2.196607888E-01 5.556110293E-02
 2.219294906E-01 5.611146241E-02
 2.242107242E-01 5.667499080E-02
 2.265045196E-01 5.725212023E-02
 2.288108766E-01 5.784332007E-02
 2.311298251E-01 5.844906345E-02
 2.334613651E-01 5.906986445E-02
 2.358054966E-01 5.970624834E-02
 2.381622493E-01 6.035877764E-02
 2.405316383E-01 6.102803722E-02
 2.429136485E-01 6.171464548E-02
 2.453083098E-01 6.241925806E-02
 2.477156222E-01 6.314256042E-02
 2.501356006E-01 6.388528645E-02
 2.525682449E-01 6.464819610E-02
 2.550135255E-01 6.543211639E-02
 2.574715018E-01 6.623790413E-02
 2.599421442E-01 6.706649065E-02
 2.624254823E-01 6.791885197E-02
 2.649214864E-01 6.879603118E-02
 2.674301565E-01 6.969916075E-02
 2.699515224E-01 7.062942535E-02
 2.724855542E-01 7.158812135E-02
 2.750322521E-01 7.257663459E-02
 2.775916159E-01 7.359647751E-02
 2.801636457E-01 7.464928180E-02
 2.827483416E-01 7.573681325E-02
 2.853456736E-01 7.686103880E-02
 2.879556417E-01 7.802408189E-02
 2.905782461E-01 7.922831923E-02
 2.932134569E-01 8.047644049E-02
 2.958613038E-01 8.177159727E-02
 2.985217273E-01 8.311757445E-02
 3.011947274E-01 8.451880515E-02
 3.038803041E-01 8.597997576E-02
 3.065784574E-01 8.750542998E-02
 3.092890978E-01 8.909861743E-02
 3.120122850E-01 9.076215327E-02
 3.147479594E-01 9.249798208E-02
 3.174961209E-01 9.430749714E-02
 3.202567399E-01 9.619160742E-02
 3.230297565E-01 9.815072268E-02
 3.258152306E-01 1.001847833E-01
 3.286130428E-01 1.022930369E-01
 3.314232230E-01 1.044740826E-01
 3.342457414E-01 1.067257822E-01
 3.370805681E-01 1.090444103E-01
 3.399276435E-01 1.114284620E-01
 3.427869678E-01 1.138761565E-01
 3.456584811E-01 1.163830906E-01
 3.485421836E-01 1.189476177E-01
 3.514380157E-01 1.215606704E-01
 3.543459177E-01 1.242169961E-01
 3.572659194E-01 1.269163787E-01
 3.601979017E-01 1.296566576E-01
 3.631418645E-01 1.324255466E-01
 3.660977483E-01 1.352120787E-01
 3.690654933E-01 1.380195618E-01
 3.720450699E-01 1.408501565E-01
 3.750364482E-01 1.436712742E-01
 3.780395389E-01 1.464859545E-01
 3.810542822E-01 1.493142843E-01
 3.840806186E-01 1.521022469E-01
 3.871185184E-01 1.548686326E-01
 3.901678622E-01 1.576192081E-01
 3.932286203E-01 1.602995396E-01
 3.963007331E-01 1.629660130E-01
 3.993840814E-01 1.655478179E-01
 4.024785757E-01 1.680663824E-01
 4.055841863E-01 1.705234498E-01
 4.087007940E-01 1.728803515E-01
 4.118283093E-01 1.751615107E-01
 4.149666429E-01 1.773287058E-01
 4.181156456E-01 1.793943346E-01
 4.212752879E-01 1.813389808E-01
 4.244453907E-01 1.831515282E-01
 4.276258647E-01 1.848399043E-01
 4.308166206E-01 1.863632351E-01
 4.340174794E-01 1.877592206E-01
 4.372283220E-01 1.889644861E-01
 4.404490292E-01 1.900161654E-01
 4.436794519E-01 1.908870637E-01
 4.469194710E-01 1.915375292E-01
 4.501688778E-01 1.920428574E-01
 4.534275532E-01 1.922882944E-01
 4.566953778E-01 1.923494041E-01
 4.599721134E-01 1.921882331E-01
 4.632576406E-01 1.917523146E-01
 4.665518105E-01 1.911300868E-01
 4.698544145E-01 1.902306825E-01
 4.731652737E-01 1.890429258E-01
 4.764842689E-01 1.876399517E-01
 4.798111618E-01 1.859384775E-01
 4.831458032E-01 1.839292198E-01
 4.864880145E-01 1.816508174E-01
 4.898376465E-01 1.790881455E-01
 4.931944907E-01 1.761831641E-01
 4.965583980E-01 1.729555428E-01
 4.999292195E-01 1.694369763E-01
 5.033067465E-01 1.655785590E-01
 5.066908002E-01 1.613548547E-01
 5.100812912E-01 1.567889005E-01
 5.134780407E-01 1.518832147E-01
 5.168808699E-01 1.466285288E-01
 5.202897191E-01 1.409765631E-01
 5.237043500E-01 1.349360347E-01
 5.271247625E-01 1.285436600E-01
 5.305507779E-01 1.217563748E-01
 5.339823365E-01 1.145921424E-01
 5.374191999E-01 1.070015803E-01
 5.408614874E-01 9.899809957E-02