# Turbulence results from CFL3D, SSG/LRR-RSM-w2012 model
# Note that y'-coordinate is given here.  This was obtained from the CFD grid coordinate using: y'=y-0.07.
# Note: extraction at x=0.3048 was "nearby" for CFL3D because turb data was not available at zone interface
VARIABLES = "x","y'","uv/uinf^2*1000"
ZONE T="x=-.3302"
 -3.301999867E-01 -8.565187386E-07 -2.323972836E-07
 -3.301999867E-01 2.786815230E-06 -1.209928178E-05
 -3.301999867E-01 6.474852398E-06 -1.100977752E-04
 -3.301999867E-01 1.020759373E-05 -4.719874705E-04
 -3.301999867E-01 1.399248868E-05 -1.404141076E-03
 -3.301999867E-01 1.783698826E-05 -3.315418027E-03
 -3.301999867E-01 2.173364192E-05 -6.699390244E-03
 -3.301999867E-01 2.568244963E-05 -1.204212103E-02
 -3.301999867E-01 2.969086199E-05 -1.990671083E-02
 -3.301999867E-01 3.375887900E-05 -3.092207760E-02
 -3.301999867E-01 3.788650065E-05 -4.533507302E-02
 -3.301999867E-01 4.208117753E-05 -6.429787725E-02
 -3.301999867E-01 4.633545905E-05 -8.719653636E-02
 -3.301999867E-01 5.065679579E-05 -1.143598631E-01
 -3.301999867E-01 5.505263834E-05 -1.465597898E-01
 -3.301999867E-01 5.951553612E-05 -1.828762144E-01
 -3.301999867E-01 6.405293971E-05 -2.231611609E-01
 -3.301999867E-01 6.867229968E-05 -2.671917379E-01
 -3.301999867E-01 7.335871487E-05 -3.148577809E-01
 -3.301999867E-01 7.812708645E-05 -3.642631173E-01
 -3.301999867E-01 8.298486500E-05 -4.157036543E-01
 -3.301999867E-01 8.791714936E-05 -4.688835144E-01
 -3.301999867E-01 9.293884068E-05 -5.218006372E-01
 -3.301999867E-01 9.804993897E-05 -5.746633410E-01
 -3.301999867E-01 1.032504442E-04 -6.270155907E-01
 -3.301999867E-01 1.085478070E-04 -6.784872413E-01
 -3.301999867E-01 1.139420274E-04 -7.282817364E-01
 -3.301999867E-01 1.194331053E-04 -7.760358453E-01
 -3.301999867E-01 1.250284840E-04 -8.217046857E-01
 -3.301999867E-01 1.307281782E-04 -8.651541471E-01
 -3.301999867E-01 1.365321805E-04 -9.063708186E-01
 -3.301999867E-01 1.424479415E-04 -9.452738762E-01
 -3.301999867E-01 1.484754612E-04 -9.816903472E-01
 -3.301999867E-01 1.546221902E-04 -1.015794039E+00
 -3.301999867E-01 1.608881284E-04 -1.047867298E+00
 -3.301999867E-01 1.672732760E-04 -1.077974081E+00
 -3.301999867E-01 1.737850835E-04 -1.106179357E+00
 -3.301999867E-01 1.804310014E-04 -1.132288098E+00
 -3.301999867E-01 1.872110297E-04 -1.156668663E+00
 -3.301999867E-01 1.941251685E-04 -1.179259539E+00
 -3.301999867E-01 2.011808683E-04 -1.200618744E+00
 -3.301999867E-01 2.083781292E-04 -1.220396519E+00
 -3.301999867E-01 2.157318522E-04 -1.238627791E+00
 -3.301999867E-01 2.232345869E-04 -1.255781412E+00
 -3.301999867E-01 2.308937837E-04 -1.271938920E+00
 -3.301999867E-01 2.387094428E-04 -1.286952615E+00
 -3.301999867E-01 2.466964652E-04 -1.301030397E+00
 -3.301999867E-01 2.548548509E-04 -1.314272285E+00
 -3.301999867E-01 2.631920506E-04 -1.326653838E+00
 -3.301999867E-01 2.717080642E-04 -1.338382959E+00
 -3.301999867E-01 2.804103424E-04 -1.349199176E+00
 -3.301999867E-01 2.892988850E-04 -1.359393120E+00
 -3.301999867E-01 2.983885934E-04 -1.369032145E+00
 -3.301999867E-01 3.076794674E-04 -1.378123641E+00
 -3.301999867E-01 3.171789576E-04 -1.386695623E+00
 -3.301999867E-01 3.268870641E-04 -1.394776583E+00
 -3.301999867E-01 3.368261387E-04 -1.402351260E+00
 -3.301999867E-01 3.469812800E-04 -1.409441113E+00
 -3.301999867E-01 3.573748400E-04 -1.416174889E+00
 -3.301999867E-01 3.680142690E-04 -1.422562242E+00
 -3.301999867E-01 3.788921167E-04 -1.428617954E+00
 -3.301999867E-01 3.900307347E-04 -1.434353948E+00
 -3.301999867E-01 4.014301230E-04 -1.439695477E+00
 -3.301999867E-01 4.130977322E-04 -1.444749355E+00
 -3.301999867E-01 4.250484635E-04 -1.449543715E+00
 -3.301999867E-01 4.372823169E-04 -1.454093575E+00
 -3.301999867E-01 4.498141934E-04 -1.458418608E+00
 -3.301999867E-01 4.626515438E-04 -1.462411761E+00
 -3.301999867E-01 4.757943680E-04 -1.466197252E+00
 -3.301999867E-01 4.892724683E-04 -1.469796181E+00
 -3.301999867E-01 5.030783941E-04 -1.473202586E+00
 -3.301999867E-01 5.172270467E-04 -1.476411223E+00
 -3.301999867E-01 5.317258765E-04 -1.479360461E+00
 -3.301999867E-01 5.465972354E-04 -1.482156038E+00
 -3.301999867E-01 5.618411233E-04 -1.484793544E+00
 -3.301999867E-01 5.774798919E-04 -1.487276316E+00
 -3.301999867E-01 5.935135414E-04 -1.489584684E+00
 -3.301999867E-01 6.099644233E-04 -1.491692781E+00
 -3.301999867E-01 6.268399884E-04 -1.493667483E+00
 -3.301999867E-01 6.441551377E-04 -1.495511413E+00
 -3.301999867E-01 6.619247724E-04 -1.497226834E+00
 -3.301999867E-01 6.801637937E-04 -1.498748183E+00
 -3.301999867E-01 6.988871028E-04 -1.500150561E+00
 -3.301999867E-01 7.181096007E-04 -1.501429200E+00
 -3.301999867E-01 7.378536393E-04 -1.502582788E+00
 -3.301999867E-01 7.581266691E-04 -1.503598690E+00
 -3.301999867E-01 7.789510419E-04 -1.504472256E+00
 -3.301999867E-01 8.003416588E-04 -1.505232811E+00
 -3.301999867E-01 8.223283221E-04 -1.505876541E+00
 -3.301999867E-01 8.449184825E-04 -1.506400228E+00
 -3.301999867E-01 8.681344916E-04 -1.506793499E+00
 -3.301999867E-01 8.919987013E-04 -1.507065058E+00
 -3.301999867E-01 9.165334632E-04 -1.507223487E+00
 -3.301999867E-01 9.417611291E-04 -1.507270455E+00
 -3.301999867E-01 9.677040507E-04 -1.507210493E+00
 -3.301999867E-01 9.943920886E-04 -1.507002234E+00
 -3.301999867E-01 1.021847478E-03 -1.506691456E+00
 -3.301999867E-01 1.050092629E-03 -1.506271839E+00
 -3.301999867E-01 1.079157344E-03 -1.505740881E+00
 -3.301999867E-01 1.109071425E-03 -1.505089283E+00
 -3.301999867E-01 1.139864675E-03 -1.504301429E+00
 -3.301999867E-01 1.171566895E-03 -1.503405452E+00
 -3.301999867E-01 1.204215339E-03 -1.502396822E+00
 -3.301999867E-01 1.237832359E-03 -1.501269937E+00
 -3.301999867E-01 1.272455207E-03 -1.500026107E+00
 -3.301999867E-01 1.308128587E-03 -1.498640060E+00
 -3.301999867E-01 1.344882301E-03 -1.497138858E+00
 -3.301999867E-01 1.382753602E-03 -1.495517492E+00
 -3.301999867E-01 1.421787194E-03 -1.493770957E+00
 -3.301999867E-01 1.462027780E-03 -1.491894364E+00
 -3.301999867E-01 1.503512613E-03 -1.489871383E+00
 -3.301999867E-01 1.546286396E-03 -1.487720132E+00
 -3.301999867E-01 1.590408734E-03 -1.485437155E+00
 -3.301999867E-01 1.635916880E-03 -1.483019829E+00
 -3.301999867E-01 1.682862989E-03 -1.480458617E+00
 -3.301999867E-01 1.731306664E-03 -1.477734923E+00
 -3.301999867E-01 1.781300060E-03 -1.474867463E+00
 -3.301999867E-01 1.832902781E-03 -1.471846938E+00
 -3.301999867E-01 1.886174432E-03 -1.468672395E+00
 -3.301999867E-01 1.941182069E-03 -1.465343595E+00
 -3.301999867E-01 1.997985179E-03 -1.461837053E+00
 -3.301999867E-01 2.056665951E-03 -1.458147049E+00
 -3.301999867E-01 2.117283875E-03 -1.454276443E+00
 -3.301999867E-01 2.179913456E-03 -1.450225711E+00
 -3.301999867E-01 2.244644100E-03 -1.445985079E+00
 -3.301999867E-01 2.311557764E-03 -1.441543698E+00
 -3.301999867E-01 2.380728954E-03 -1.436897278E+00
 -3.301999867E-01 2.452254528E-03 -1.432026744E+00
 -3.301999867E-01 2.526238794E-03 -1.426922798E+00
 -3.301999867E-01 2.602763707E-03 -1.421576023E+00
 -3.301999867E-01 2.681941027E-03 -1.415980935E+00
 -3.301999867E-01 2.763882512E-03 -1.410120368E+00
 -3.301999867E-01 2.848692471E-03 -1.403978705E+00
 -3.301999867E-01 2.936505014E-03 -1.397548676E+00
 -3.301999867E-01 3.027431900E-03 -1.390790939E+00
 -3.301999867E-01 3.121614689E-03 -1.383698821E+00
 -3.301999867E-01 3.219187493E-03 -1.376236558E+00
 -3.301999867E-01 3.320291871E-03 -1.368394732E+00
 -3.301999867E-01 3.425084287E-03 -1.360140204E+00
 -3.301999867E-01 3.533736104E-03 -1.351443052E+00
 -3.301999867E-01 3.646403784E-03 -1.342267871E+00
 -3.301999867E-01 3.763273591E-03 -1.332570910E+00
 -3.301999867E-01 3.884531790E-03 -1.322309017E+00
 -3.301999867E-01 4.010387231E-03 -1.311448336E+00
 -3.301999867E-01 4.141040612E-03 -1.299919605E+00
 -3.301999867E-01 4.276723135E-03 -1.287662148E+00
 -3.301999867E-01 4.417665768E-03 -1.274600506E+00
 -3.301999867E-01 4.564136732E-03 -1.260645270E+00
 -3.301999867E-01 4.716389347E-03 -1.245738387E+00
 -3.301999867E-01 4.874706734E-03 -1.229767680E+00
 -3.301999867E-01 5.039409269E-03 -1.212615848E+00
 -3.301999867E-01 5.210802425E-03 -1.194160461E+00
 -3.301999867E-01 5.389243830E-03 -1.174238801E+00
 -3.301999867E-01 5.575106014E-03 -1.152677298E+00
 -3.301999867E-01 5.768776406E-03 -1.129244447E+00
 -3.301999867E-01 5.970687140E-03 -1.103636146E+00
 -3.301999867E-01 6.181292702E-03 -1.075453520E+00
 -3.301999867E-01 6.401084829E-03 -1.044142723E+00
 -3.301999867E-01 6.630607415E-03 -1.008964777E+00
 -3.301999867E-01 6.870434154E-03 -9.690487981E-01
 -3.301999867E-01 7.121190894E-03 -9.237053990E-01
 -3.301999867E-01 7.383555640E-03 -8.727573752E-01
 -3.301999867E-01 7.658273447E-03 -8.167478442E-01
 -3.301999867E-01 7.946163416E-03 -7.565444708E-01
 -3.301999867E-01 8.248113096E-03 -6.930364966E-01
 -3.301999867E-01 8.565112948E-03 -6.268380880E-01
 -3.301999867E-01 8.898250759E-03 -5.592350960E-01
 -3.301999867E-01 9.248726070E-03 -4.933467805E-01
 -3.301999867E-01 9.617887437E-03 -4.273121953E-01
 -3.301999867E-01 1.000723243E-02 -3.595271409E-01
 -3.301999867E-01 1.041845977E-02 -2.887407541E-01
 -3.301999867E-01 1.085346192E-02 -2.147127092E-01
 -3.301999867E-01 1.131441444E-02 -1.403624713E-01
 -3.301999867E-01 1.180378348E-02 -7.313720137E-02
 -3.301999867E-01 1.232440025E-02 -2.585969865E-02
 -3.301999867E-01 1.287955046E-02 -4.593583290E-03
 -3.301999867E-01 1.347304136E-02 -5.338193150E-04
 -3.301999867E-01 1.410935819E-02 -4.738894859E-05
 -3.301999867E-01 1.479378343E-02 -1.974753559E-06
 -3.301999867E-01 1.553262770E-02 -1.214738035E-07
 -3.301999867E-01 1.633349806E-02 -1.780300529E-08
 -3.301999867E-01 1.720564812E-02 -1.342551492E-08
 -3.301999867E-01 1.816047728E-02 -1.322982879E-08
 -3.301999867E-01 1.921221614E-02 -1.307407160E-08
 -3.301999867E-01 2.037887275E-02 -1.285044071E-08
 -3.301999867E-01 2.168361843E-02 -1.252813231E-08
 -3.301999867E-01 2.315684408E-02 -1.206704514E-08
 -3.301999867E-01 2.483921498E-02 -1.141456707E-08
 -3.301999867E-01 2.678651363E-02 -1.047167064E-08
 -3.301999867E-01 2.907747775E-02 -9.047749217E-09
 -3.301999867E-01 3.182713687E-02 -6.759090621E-09
 -3.301999867E-01 3.521059453E-02 -1.579559816E-09
ZONE T="x=-.0762"
 -7.620000094E-02 -8.416175774E-07 -2.534629173E-09
 -7.620000094E-02 2.824068133E-06 -9.964170999E-08
 -7.620000094E-02 6.527006462E-06 -9.449428831E-07
 -7.620000094E-02 1.025974780E-05 -4.373809134E-06
 -7.620000094E-02 1.402974158E-05 -1.357902238E-05
 -7.620000094E-02 1.784443884E-05 -3.359248149E-05
 -7.620000094E-02 2.169638901E-05 -7.107460260E-05
 -7.620000094E-02 2.560049325E-05 -1.340199960E-04
 -7.620000094E-02 2.955675154E-05 -2.323576336E-04
 -7.620000094E-02 3.356516390E-05 -3.789050679E-04
 -7.620000094E-02 3.762573033E-05 -5.866415449E-04
 -7.620000094E-02 4.175335198E-05 -8.759463090E-04
 -7.620000094E-02 4.594057827E-05 -1.256880234E-03
 -7.620000094E-02 5.019485980E-05 -1.758633065E-03
 -7.620000094E-02 5.452364712E-05 -2.402157756E-03
 -7.620000094E-02 5.892694026E-05 -3.205648391E-03
 -7.620000094E-02 6.340473919E-05 -4.204711411E-03
 -7.620000094E-02 6.796449452E-05 -5.433983635E-03
 -7.620000094E-02 7.261365681E-05 -6.914113183E-03
 -7.620000094E-02 7.735222607E-05 -8.677301928E-03
 -7.620000094E-02 8.218020230E-05 -1.076296158E-02
 -7.620000094E-02 8.710503607E-05 -1.322236378E-02
 -7.620000094E-02 9.213417798E-05 -1.606184989E-02
 -7.620000094E-02 9.726762801E-05 -1.932971552E-02
 -7.620000094E-02 1.025128367E-04 -2.303918824E-02
 -7.620000094E-02 1.078698042E-04 -2.723757923E-02
 -7.620000094E-02 1.133459809E-04 -3.197393194E-02
 -7.620000094E-02 1.189488175E-04 -3.725206107E-02
 -7.620000094E-02 1.246857573E-04 -4.308546335E-02
 -7.620000094E-02 1.305493643E-04 -4.949882627E-02
 -7.620000094E-02 1.365545322E-04 -5.650617182E-02
 -7.620000094E-02 1.427012612E-04 -6.409209967E-02
 -7.620000094E-02 1.489970018E-04 -7.231802493E-02
 -7.620000094E-02 1.554566552E-04 -8.108921349E-02
 -7.620000094E-02 1.620727708E-04 -9.036725014E-02
 -7.620000094E-02 1.688527991E-04 -1.001732573E-01
 -7.620000094E-02 1.758116414E-04 -1.104784608E-01
 -7.620000094E-02 1.829492976E-04 -1.212341040E-01
 -7.620000094E-02 1.902657677E-04 -1.324391067E-01
 -7.620000094E-02 1.977834036E-04 -1.439322084E-01
 -7.620000094E-02 2.055022051E-04 -1.556907296E-01
 -7.620000094E-02 2.134221722E-04 -1.677577794E-01
 -7.620000094E-02 2.215656568E-04 -1.800063401E-01
 -7.620000094E-02 2.299252083E-04 -1.924323589E-01
 -7.620000094E-02 2.385157277E-04 -2.048670053E-01
 -7.620000094E-02 2.473446657E-04 -2.174259424E-01
 -7.620000094E-02 2.564269234E-04 -2.299833000E-01
 -7.620000094E-02 2.657625009E-04 -2.424963862E-01
 -7.620000094E-02 2.753588487E-04 -2.549986243E-01
 -7.620000094E-02 2.852383186E-04 -2.674341798E-01
 -7.620000094E-02 2.953934600E-04 -2.797812819E-01
 -7.620000094E-02 3.058466245E-04 -2.920520306E-01
 -7.620000094E-02 3.166127135E-04 -3.042134047E-01
 -7.620000094E-02 3.276842763E-04 -3.162578046E-01
 -7.620000094E-02 3.390911152E-04 -3.282589018E-01
 -7.620000094E-02 3.508332302E-04 -3.401512504E-01
 -7.620000094E-02 3.629255225E-04 -3.519487977E-01
 -7.620000094E-02 3.753828933E-04 -3.636071980E-01
 -7.620000094E-02 3.882127930E-04 -3.752211034E-01
 -7.620000094E-02 4.014375736E-04 -3.867892027E-01
 -7.620000094E-02 4.150646855E-04 -3.983212411E-01
 -7.620000094E-02 4.291090299E-04 -4.098006487E-01
 -7.620000094E-02 4.435855080E-04 -4.212457538E-01
 -7.620000094E-02 4.585090210E-04 -4.326958358E-01
 -7.620000094E-02 4.739019205E-04 -4.441612959E-01
 -7.620000094E-02 4.897716572E-04 -4.556198120E-01
 -7.620000094E-02 5.061405827E-04 -4.671225846E-01
 -7.620000094E-02 5.230310489E-04 -4.786293209E-01
 -7.620000094E-02 5.404505064E-04 -4.901770055E-01
 -7.620000094E-02 5.584213068E-04 -5.018065572E-01
 -7.620000094E-02 5.769732525E-04 -5.135135651E-01
 -7.620000094E-02 5.961137940E-04 -5.252828002E-01
 -7.620000094E-02 6.158652832E-04 -5.371384621E-01
 -7.620000094E-02 6.362649729E-04 -5.491081476E-01
 -7.620000094E-02 6.573203136E-04 -5.611820817E-01
 -7.620000094E-02 6.790611078E-04 -5.734116435E-01
 -7.620000094E-02 7.015097071E-04 -5.857194662E-01
 -7.620000094E-02 7.246884634E-04 -5.981415510E-01
 -7.620000094E-02 7.486346294E-04 -6.107266545E-01
 -7.620000094E-02 7.733705570E-04 -6.234706640E-01
 -7.620000094E-02 7.989185979E-04 -6.363605857E-01
 -7.620000094E-02 8.253160049E-04 -6.494061351E-01
 -7.620000094E-02 8.526000311E-04 -6.626195908E-01
 -7.620000094E-02 8.807855775E-04 -6.760073304E-01
 -7.620000094E-02 9.099098970E-04 -6.895928979E-01
 -7.620000094E-02 9.400251438E-04 -7.033534646E-01
 -7.620000094E-02 9.711462189E-04 -7.172713280E-01
 -7.620000094E-02 1.003317884E-03 -7.313815355E-01
 -7.620000094E-02 1.036577276E-03 -7.456718683E-01
 -7.620000094E-02 1.070961705E-03 -7.601538301E-01
 -7.620000094E-02 1.106523327E-03 -7.748515010E-01
 -7.620000094E-02 1.143299392E-03 -7.897505164E-01
 -7.620000094E-02 1.181327156E-03 -8.048531413E-01
 -7.620000094E-02 1.220666221E-03 -8.201783299E-01
 -7.620000094E-02 1.261353842E-03 -8.357092142E-01
 -7.620000094E-02 1.303442172E-03 -8.514419198E-01
 -7.620000094E-02 1.346983365E-03 -8.673887849E-01
 -7.620000094E-02 1.392037026E-03 -8.835091591E-01
 -7.620000094E-02 1.438655308E-03 -8.998524547E-01
 -7.620000094E-02 1.486897818E-03 -9.163833261E-01
 -7.620000094E-02 1.536816708E-03 -9.331216216E-01
 -7.620000094E-02 1.588479034E-03 -9.500661492E-01
 -7.620000094E-02 1.641959301E-03 -9.672173262E-01
 -7.620000094E-02 1.697309664E-03 -9.845575690E-01
 -7.620000094E-02 1.754612080E-03 -1.002086520E+00
 -7.620000094E-02 1.813933603E-03 -1.019801736E+00
 -7.620000094E-02 1.875348738E-03 -1.037687778E+00
 -7.620000094E-02 1.938946894E-03 -1.055748463E+00
 -7.620000094E-02 2.004795009E-03 -1.073975205E+00
 -7.620000094E-02 2.072982723E-03 -1.092336297E+00
 -7.620000094E-02 2.143599326E-03 -1.110827208E+00
 -7.620000094E-02 2.216741676E-03 -1.129413962E+00
 -7.620000094E-02 2.292499179E-03 -1.148126721E+00
 -7.620000094E-02 2.370968694E-03 -1.166922331E+00
 -7.620000094E-02 2.452261979E-03 -1.185800314E+00
 -7.620000094E-02 2.536475891E-03 -1.204738975E+00
 -7.620000094E-02 2.623729641E-03 -1.223706484E+00
 -7.620000094E-02 2.714127535E-03 -1.242685556E+00
 -7.620000094E-02 2.807803685E-03 -1.261666179E+00
 -7.620000094E-02 2.904869849E-03 -1.280602336E+00
 -7.620000094E-02 3.005467588E-03 -1.299458623E+00
 -7.620000094E-02 3.109723562E-03 -1.318216801E+00
 -7.620000094E-02 3.217779333E-03 -1.336838126E+00
 -7.620000094E-02 3.329783911E-03 -1.355268836E+00
 -7.620000094E-02 3.445886308E-03 -1.373484731E+00
 -7.620000094E-02 3.566250438E-03 -1.391427279E+00
 -7.620000094E-02 3.691032762E-03 -1.409048557E+00
 -7.620000094E-02 3.820404643E-03 -1.426287174E+00
 -7.620000094E-02 3.954552580E-03 -1.443073511E+00
 -7.620000094E-02 4.093654919E-03 -1.459331393E+00
 -7.620000094E-02 4.237905610E-03 -1.475014806E+00
 -7.620000094E-02 4.387513269E-03 -1.490054011E+00
 -7.620000094E-02 4.542679060E-03 -1.504357219E+00
 -7.620000094E-02 4.703619052E-03 -1.517845035E+00
 -7.620000094E-02 4.870564211E-03 -1.530422688E+00
 -7.620000094E-02 5.043760408E-03 -1.541994095E+00
 -7.620000094E-02 5.223438609E-03 -1.552446008E+00
 -7.620000094E-02 5.409867037E-03 -1.561668158E+00
 -7.620000094E-02 5.603313912E-03 -1.569545746E+00
 -7.620000094E-02 5.804054905E-03 -1.575949907E+00
 -7.620000094E-02 6.012388039E-03 -1.580748558E+00
 -7.620000094E-02 6.228611339E-03 -1.583806038E+00
 -7.620000094E-02 6.453052629E-03 -1.584978223E+00
 -7.620000094E-02 6.686032284E-03 -1.584125161E+00
 -7.620000094E-02 6.927915383E-03 -1.581101060E+00
 -7.620000094E-02 7.179059554E-03 -1.575756788E+00
 -7.620000094E-02 7.439844776E-03 -1.567955613E+00
 -7.620000094E-02 7.710665930E-03 -1.557574630E+00
 -7.620000094E-02 7.991947234E-03 -1.544504404E+00
 -7.620000094E-02 8.284121752E-03 -1.528660417E+00
 -7.620000094E-02 8.587650955E-03 -1.510004640E+00
 -7.620000094E-02 8.903026581E-03 -1.488544345E+00
 -7.620000094E-02 9.230732918E-03 -1.464341879E+00
 -7.620000094E-02 9.571328759E-03 -1.437537432E+00
 -7.620000094E-02 9.925350547E-03 -1.408348918E+00
 -7.620000094E-02 1.029340178E-02 -1.377051353E+00
 -7.620000094E-02 1.067610085E-02 -1.343957663E+00
 -7.620000094E-02 1.107409596E-02 -1.309397936E+00
 -7.620000094E-02 1.148809493E-02 -1.273661613E+00
 -7.620000094E-02 1.191882789E-02 -1.236944795E+00
 -7.620000094E-02 1.236707717E-02 -1.199295878E+00
 -7.620000094E-02 1.283366233E-02 -1.160554886E+00
 -7.620000094E-02 1.331946254E-02 -1.120271802E+00
 -7.620000094E-02 1.382542402E-02 -1.077641606E+00
 -7.620000094E-02 1.435256004E-02 -1.031538010E+00
 -7.620000094E-02 1.490192860E-02 -9.806440473E-01
 -7.620000094E-02 1.547469199E-02 -9.236918092E-01
 -7.620000094E-02 1.607210934E-02 -8.596892953E-01
 -7.620000094E-02 1.669552177E-02 -7.880751491E-01
 -7.620000094E-02 1.734639704E-02 -7.088134289E-01
 -7.620000094E-02 1.802632958E-02 -6.233794689E-01
 -7.620000094E-02 1.873708516E-02 -5.350737572E-01
 -7.620000094E-02 1.948058605E-02 -4.428447783E-01
 -7.620000094E-02 2.025897056E-02 -3.477392793E-01
 -7.620000094E-02 2.107462287E-02 -2.529296577E-01
 -7.620000094E-02 2.193022519E-02 -1.649551839E-01
 -7.620000094E-02 2.282878757E-02 -9.284612536E-02
 -7.620000094E-02 2.377377450E-02 -4.331689328E-02
 -7.620000094E-02 2.476914972E-02 -1.597370580E-02
 -7.620000094E-02 2.581951767E-02 -4.509101156E-03
 -7.620000094E-02 2.693030238E-02 -1.128779375E-03
 -7.620000094E-02 2.810794860E-02 -2.310954151E-04
 -7.620000094E-02 2.936021984E-02 -3.908342114E-05
 -7.620000094E-02 3.069660813E-02 -5.442268503E-06
 -7.620000094E-02 3.212893754E-02 -1.361063255E-06
 -7.620000094E-02 3.367214650E-02 -1.078145942E-06
 -7.620000094E-02 3.534555435E-02 -1.063860850E-06
 -7.620000094E-02 3.717470169E-02 -1.078338187E-06
 -7.620000094E-02 3.919423372E-02 -1.097308314E-06
 -7.620000094E-02 4.145266861E-02 -1.116737394E-06
 -7.620000094E-02 4.402031749E-02 -1.121963805E-06
 -7.620000094E-02 4.700368643E-02 -1.176937076E-06
ZONE T="x=.0508"
 5.079999939E-02 -5.435943535E-07 -7.629519932E-11
 5.079999939E-02 3.710687224E-06 -2.784060982E-09
 5.079999939E-02 7.987320714E-06 -2.906035235E-08
 5.079999939E-02 1.230120688E-05 -1.349489622E-07
 5.079999939E-02 1.665234595E-05 -4.308904806E-07
 5.079999939E-02 2.104818850E-05 -1.091143076E-06
 5.079999939E-02 2.548873454E-05 -2.362939085E-06
 5.079999939E-02 2.998143464E-05 -4.534051186E-06
 5.079999939E-02 3.452628880E-05 -8.009907106E-06
 5.079999939E-02 3.913074761E-05 -1.342560608E-05
 5.079999939E-02 4.379481106E-05 -2.128020424E-05
 5.079999939E-02 4.853338032E-05 -3.232456947E-05
 5.079999939E-02 5.333900481E-05 -4.752002496E-05
 5.079999939E-02 5.822658568E-05 -6.804253644E-05
 5.079999939E-02 6.319612294E-05 -9.508488438E-05
 5.079999939E-02 6.825506716E-05 -1.305620390E-04
 5.079999939E-02 7.340341836E-05 -1.756213460E-04
 5.079999939E-02 7.865607768E-05 -2.332417935E-04
 5.079999939E-02 8.400559454E-05 -3.047795617E-04
 5.079999939E-02 8.945941954E-05 -3.932414111E-04
 5.079999939E-02 9.503245383E-05 -5.024412530E-04
 5.079999939E-02 1.007246974E-04 -6.361480919E-04
 5.079999939E-02 1.065436009E-04 -7.971561281E-04
 5.079999939E-02 1.124891642E-04 -9.911643574E-04
 5.079999939E-02 1.185688379E-04 -1.222452731E-03
 5.079999939E-02 1.247975160E-04 -1.498733298E-03
 5.079999939E-02 1.311752130E-04 -1.824950567E-03
 5.079999939E-02 1.377093722E-04 -2.206890145E-03
 5.079999939E-02 1.443999936E-04 -2.659890102E-03
 5.079999939E-02 1.512619783E-04 -3.179057268E-03
 5.079999939E-02 1.583027770E-04 -3.790743649E-03
 5.079999939E-02 1.655298402E-04 -4.486985970E-03
 5.079999939E-02 1.729431679E-04 -5.298347678E-03
 5.079999939E-02 1.805576612E-04 -6.219658535E-03
 5.079999939E-02 1.883733203E-04 -7.260472979E-03
 5.079999939E-02 1.964124967E-04 -8.445654996E-03
 5.079999939E-02 2.046751906E-04 -9.788831696E-03
 5.079999939E-02 2.131614019E-04 -1.127544977E-02
 5.079999939E-02 2.218934824E-04 -1.294525154E-02
 5.079999939E-02 2.308788826E-04 -1.479528844E-02
 5.079999939E-02 2.401250531E-04 -1.683579013E-02
 5.079999939E-02 2.496394445E-04 -1.905788481E-02
 5.079999939E-02 2.594369580E-04 -2.147843502E-02
 5.079999939E-02 2.695250441E-04 -2.410738915E-02
 5.079999939E-02 2.799186041E-04 -2.693172544E-02
 5.079999939E-02 2.906176378E-04 -2.995207347E-02
 5.079999939E-02 3.016519477E-04 -3.315118700E-02
 5.079999939E-02 3.130215337E-04 -3.651364520E-02
 5.079999939E-02 3.247412969E-04 -4.004142806E-02
 5.079999939E-02 3.368186881E-04 -4.372516647E-02
 5.079999939E-02 3.492835094E-04 -4.754916951E-02
 5.079999939E-02 3.621357610E-04 -5.148915201E-02
 5.079999939E-02 3.753903438E-04 -5.554417521E-02
 5.079999939E-02 3.890696098E-04 -5.967618525E-02
 5.079999939E-02 4.031884600E-04 -6.392078847E-02
 5.079999939E-02 4.177543451E-04 -6.822255254E-02
 5.079999939E-02 4.327970673E-04 -7.258313894E-02
 5.079999939E-02 4.483240773E-04 -7.702437043E-02
 5.079999939E-02 4.643502762E-04 -8.152465522E-02
 5.079999939E-02 4.809054662E-04 -8.607289195E-02
 5.079999939E-02 4.980045487E-04 -9.070961922E-02
 5.079999939E-02 5.156698753E-04 -9.540064633E-02
 5.079999939E-02 5.339163472E-04 -1.001694575E-01
 5.079999939E-02 5.527663161E-04 -1.050125584E-01
 5.079999939E-02 5.722421338E-04 -1.099390537E-01
 5.079999939E-02 5.923736026E-04 -1.149694547E-01
 5.079999939E-02 6.131830742E-04 -1.201013848E-01
 5.079999939E-02 6.346854498E-04 -1.253270060E-01
 5.079999939E-02 6.569179823E-04 -1.306758523E-01
 5.079999939E-02 6.799030234E-04 -1.361420900E-01
 5.079999939E-02 7.036703755E-04 -1.417402476E-01
 5.079999939E-02 7.282423903E-04 -1.474840343E-01
 5.079999939E-02 7.536563207E-04 -1.533885449E-01
 5.079999939E-02 7.799419691E-04 -1.594363749E-01
 5.079999939E-02 8.071291377E-04 -1.656538248E-01
 5.079999939E-02 8.352550794E-04 -1.720444113E-01
 5.079999939E-02 8.643495967E-04 -1.786234528E-01
 5.079999939E-02 8.944499423E-04 -1.853926480E-01
 5.079999939E-02 9.256008198E-04 -1.923726499E-01
 5.079999939E-02 9.578245808E-04 -1.995618939E-01
 5.079999939E-02 9.911808884E-04 -2.069647908E-01
 5.079999939E-02 1.025691978E-03 -2.146109492E-01
 5.079999939E-02 1.061417512E-03 -2.225027084E-01
 5.079999939E-02 1.098394743E-03 -2.306295037E-01
 5.079999939E-02 1.136675826E-03 -2.390272766E-01
 5.079999939E-02 1.176298014E-03 -2.476919889E-01
 5.079999939E-02 1.217320911E-03 -2.566297650E-01
 5.079999939E-02 1.259796671E-03 -2.658812702E-01
 5.079999939E-02 1.303777448E-03 -2.754129767E-01
 5.079999939E-02 1.349315397E-03 -2.852593362E-01
 5.079999939E-02 1.396470121E-03 -2.954327762E-01
 5.079999939E-02 1.445308677E-03 -3.059532940E-01
 5.079999939E-02 1.495883218E-03 -3.168038428E-01
 5.079999939E-02 1.548268250E-03 -3.280159533E-01
 5.079999939E-02 1.602530829E-03 -3.396095037E-01
 5.079999939E-02 1.658738009E-03 -3.515838087E-01
 5.079999939E-02 1.716964296E-03 -3.639551103E-01
 5.079999939E-02 1.777276746E-03 -3.767423332E-01
 5.079999939E-02 1.839772216E-03 -3.899572790E-01
 5.079999939E-02 1.904510311E-03 -4.035995007E-01
 5.079999939E-02 1.971595222E-03 -4.177000523E-01
 5.079999939E-02 2.041109139E-03 -4.322822094E-01
 5.079999939E-02 2.113133902E-03 -4.473300874E-01
 5.079999939E-02 2.187773818E-03 -4.628732800E-01
 5.079999939E-02 2.265133196E-03 -4.789346457E-01
 5.079999939E-02 2.345293993E-03 -4.955343902E-01
 5.079999939E-02 2.428382868E-03 -5.126706362E-01
 5.079999939E-02 2.514504129E-03 -5.303584337E-01
 5.079999939E-02 2.603762085E-03 -5.486285686E-01
 5.079999939E-02 2.696290845E-03 -5.674924850E-01
 5.079999939E-02 2.792209620E-03 -5.869690180E-01
 5.079999939E-02 2.891637618E-03 -6.070777774E-01
 5.079999939E-02 2.994723851E-03 -6.278241277E-01
 5.079999939E-02 3.101587528E-03 -6.492285132E-01
 5.079999939E-02 3.212392563E-03 -6.713252664E-01
 5.079999939E-02 3.327273065E-03 -6.941183209E-01
 5.079999939E-02 3.446400398E-03 -7.176224589E-01
 5.079999939E-02 3.569916124E-03 -7.418539524E-01
 5.079999939E-02 3.698006505E-03 -7.668368220E-01
 5.079999939E-02 3.830828005E-03 -7.925840020E-01
 5.079999939E-02 3.968582023E-03 -8.191118240E-01
 5.079999939E-02 4.111439455E-03 -8.464414477E-01
 5.079999939E-02 4.259609152E-03 -8.745736480E-01
 5.079999939E-02 4.413284827E-03 -9.035328031E-01
 5.079999939E-02 4.572675098E-03 -9.333319068E-01
 5.079999939E-02 4.738018382E-03 -9.639855027E-01
 5.079999939E-02 4.909523297E-03 -9.954931736E-01
 5.079999939E-02 5.087435711E-03 -1.027869821E+00
 5.079999939E-02 5.272001494E-03 -1.061125636E+00
 5.079999939E-02 5.463473964E-03 -1.095255375E+00
 5.079999939E-02 5.662128795E-03 -1.130273461E+00
 5.079999939E-02 5.868234206E-03 -1.166157365E+00
 5.079999939E-02 6.082088221E-03 -1.202924848E+00
 5.079999939E-02 6.303988863E-03 -1.240539551E+00
 5.079999939E-02 6.534249056E-03 -1.279016376E+00
 5.079999939E-02 6.773181725E-03 -1.318301678E+00
 5.079999939E-02 7.021144498E-03 -1.358400106E+00
 5.079999939E-02 7.278487552E-03 -1.399230361E+00
 5.079999939E-02 7.545568515E-03 -1.440812469E+00
 5.079999939E-02 7.822766900E-03 -1.483035445E+00
 5.079999939E-02 8.110500872E-03 -1.525897026E+00
 5.079999939E-02 8.409164846E-03 -1.569266796E+00
 5.079999939E-02 8.719198406E-03 -1.613093257E+00
 5.079999939E-02 9.041056037E-03 -1.657237887E+00
 5.079999939E-02 9.375207126E-03 -1.701624393E+00
 5.079999939E-02 9.722135961E-03 -1.746073961E+00
 5.079999939E-02 1.008235663E-02 -1.790436387E+00
 5.079999939E-02 1.045640558E-02 -1.834512711E+00
 5.079999939E-02 1.084483415E-02 -1.878092647E+00
 5.079999939E-02 1.124822348E-02 -1.920921445E+00
 5.079999939E-02 1.166718453E-02 -1.962705255E+00
 5.079999939E-02 1.210235804E-02 -2.003124952E+00
 5.079999939E-02 1.255439222E-02 -2.041793346E+00
 5.079999939E-02 1.302399486E-02 -2.078276157E+00
 5.079999939E-02 1.351188868E-02 -2.112092495E+00
 5.079999939E-02 1.401884109E-02 -2.142683506E+00
 5.079999939E-02 1.454564184E-02 -2.169435501E+00
 5.079999939E-02 1.509314030E-02 -2.191658974E+00
 5.079999939E-02 1.566220820E-02 -2.208571911E+00
 5.079999939E-02 1.625378430E-02 -2.219350815E+00
 5.079999939E-02 1.686882973E-02 -2.223097086E+00
 5.079999939E-02 1.750838757E-02 -2.218949318E+00
 5.079999939E-02 1.817353070E-02 -2.206221819E+00
 5.079999939E-02 1.886542141E-02 -2.184625626E+00
 5.079999939E-02 1.958525926E-02 -2.154071808E+00
 5.079999939E-02 2.033434808E-02 -2.114553452E+00
 5.079999939E-02 2.111405879E-02 -2.066069126E+00
 5.079999939E-02 2.192585170E-02 -2.008430958E+00
 5.079999939E-02 2.277129143E-02 -1.941331625E+00
 5.079999939E-02 2.365205437E-02 -1.864260435E+00
 5.079999939E-02 2.456995100E-02 -1.776596665E+00
 5.079999939E-02 2.552693337E-02 -1.677572489E+00
 5.079999939E-02 2.652512491E-02 -1.566252112E+00
 5.079999939E-02 2.756682038E-02 -1.441596985E+00
 5.079999939E-02 2.865456790E-02 -1.302662730E+00
 5.079999939E-02 2.979116142E-02 -1.149422765E+00
 5.079999939E-02 3.097970784E-02 -9.852459431E-01
 5.079999939E-02 3.222369403E-02 -8.103603125E-01
 5.079999939E-02 3.352705389E-02 -6.261568069E-01
 5.079999939E-02 3.489428014E-02 -4.414227009E-01
 5.079999939E-02 3.633057326E-02 -2.729142606E-01
 5.079999939E-02 3.784199804E-02 -1.438059509E-01
 5.079999939E-02 3.943573684E-02 -6.345032901E-02
 5.079999939E-02 4.112044722E-02 -2.268275060E-02
 5.079999939E-02 4.290672392E-02 -6.306726951E-03
 5.079999939E-02 4.480779916E-02 -1.291206689E-03
 5.079999939E-02 4.684054852E-02 -1.699596032E-04
 5.079999939E-02 4.902703315E-02 -1.670390520E-05
 5.079999939E-02 5.139689147E-02 -1.962004035E-06
 5.079999939E-02 5.399126559E-02 -5.172448709E-07
 5.079999939E-02 5.686938018E-02 -4.149289623E-07
 5.079999939E-02 6.012038141E-02 -3.202652010E-07
ZONE T="x=.1016"
 1.015999988E-01 -5.212426117E-07 -1.494676327E-10
 1.015999988E-01 3.770291869E-06 -5.179001228E-09
 1.015999988E-01 8.091628843E-06 -4.591300140E-08
 1.015999988E-01 1.243531733E-05 -2.208208372E-07
 1.015999988E-01 1.682370930E-05 -6.977531370E-07
 1.015999988E-01 2.124190360E-05 -1.782212280E-06
 1.015999988E-01 2.571225195E-05 -3.815409855E-06
 1.015999988E-01 3.022730380E-05 -7.255447144E-06