# Turbulence results from CFL3D, SA model
# Note that y'-coordinate is given here.  This was obtained from the CFD grid coordinate using: y'=y-0.07.
# Note: extraction at x=.3048 was at nearest cell-center
VARIABLES = "x","y'","uv/uinf^2*1000"
ZONE T="x=-.3302"
 -3.301999867E-01 2.786815230E-06 -5.973181487E-06
 -3.301999867E-01 6.474852398E-06 -4.248529149E-05
 -3.301999867E-01 1.020759373E-05 -1.600529067E-04
 -3.301999867E-01 1.399248868E-05 -4.379608727E-04
 -3.301999867E-01 1.783698826E-05 -9.885819163E-04
 -3.301999867E-01 2.173364192E-05 -1.956590917E-03
 -3.301999867E-01 2.568244963E-05 -3.523988416E-03
 -3.301999867E-01 2.969086199E-05 -5.915298592E-03
 -3.301999867E-01 3.375887900E-05 -9.402291849E-03
 -3.301999867E-01 3.788650065E-05 -1.428201515E-02
 -3.301999867E-01 4.208117753E-05 -2.112167887E-02
 -3.301999867E-01 4.633545905E-05 -3.017031029E-02
 -3.301999867E-01 5.065679579E-05 -4.186610132E-02
 -3.301999867E-01 5.505263834E-05 -5.665129796E-02
 -3.301999867E-01 5.951553612E-05 -7.497046143E-02
 -3.301999867E-01 6.405293971E-05 -9.724789858E-02
 -3.301999867E-01 6.867229968E-05 -1.238649264E-01
 -3.301999867E-01 7.335871487E-05 -1.550346166E-01
 -3.301999867E-01 7.812708645E-05 -1.910365969E-01
 -3.301999867E-01 8.298486500E-05 -2.321767062E-01
 -3.301999867E-01 8.791714936E-05 -2.778596282E-01
 -3.301999867E-01 9.293884068E-05 -3.278428316E-01
 -3.301999867E-01 9.804993897E-05 -3.815642893E-01
 -3.301999867E-01 1.032504442E-04 -4.384062290E-01
 -3.301999867E-01 1.085478070E-04 -4.975462258E-01
 -3.301999867E-01 1.139420274E-04 -5.581862926E-01
 -3.301999867E-01 1.194331053E-04 -6.193699837E-01
 -3.301999867E-01 1.250284840E-04 -6.803324223E-01
 -3.301999867E-01 1.307281782E-04 -7.402495146E-01
 -3.301999867E-01 1.365321805E-04 -7.984037399E-01
 -3.301999867E-01 1.424479415E-04 -8.542508483E-01
 -3.301999867E-01 1.484754612E-04 -9.073673487E-01
 -3.301999867E-01 1.546221902E-04 -9.575244188E-01
 -3.301999867E-01 1.608881284E-04 -1.004490376E+00
 -3.301999867E-01 1.672732760E-04 -1.048184156E+00
 -3.301999867E-01 1.737850835E-04 -1.088660240E+00
 -3.301999867E-01 1.804310014E-04 -1.125970602E+00
 -3.301999867E-01 1.872110297E-04 -1.160261273E+00
 -3.301999867E-01 1.941251685E-04 -1.191658378E+00
 -3.301999867E-01 2.011808683E-04 -1.220385790E+00
 -3.301999867E-01 2.083781292E-04 -1.246468306E+00
 -3.301999867E-01 2.157318522E-04 -1.270107150E+00
 -3.301999867E-01 2.232345869E-04 -1.291647673E+00
 -3.301999867E-01 2.308937837E-04 -1.311290503E+00
 -3.301999867E-01 2.387094428E-04 -1.329200983E+00
 -3.301999867E-01 2.466964652E-04 -1.345561504E+00
 -3.301999867E-01 2.548548509E-04 -1.360508204E+00
 -3.301999867E-01 2.631920506E-04 -1.374179840E+00
 -3.301999867E-01 2.717080642E-04 -1.386687279E+00
 -3.301999867E-01 2.804103424E-04 -1.397949100E+00
 -3.301999867E-01 2.892988850E-04 -1.408256531E+00
 -3.301999867E-01 2.983885934E-04 -1.417749763E+00
 -3.301999867E-01 3.076794674E-04 -1.426492929E+00
 -3.301999867E-01 3.171789576E-04 -1.434556127E+00
 -3.301999867E-01 3.268870641E-04 -1.441996217E+00
 -3.301999867E-01 3.368261387E-04 -1.448807597E+00
 -3.301999867E-01 3.469812800E-04 -1.455024838E+00
 -3.301999867E-01 3.573748400E-04 -1.460806370E+00
 -3.301999867E-01 3.680142690E-04 -1.466182113E+00
 -3.301999867E-01 3.788921167E-04 -1.471177340E+00
 -3.301999867E-01 3.900307347E-04 -1.475827813E+00
 -3.301999867E-01 4.014301230E-04 -1.480054140E+00
 -3.301999867E-01 4.130977322E-04 -1.483992100E+00
 -3.301999867E-01 4.250484635E-04 -1.487673521E+00
 -3.301999867E-01 4.372823169E-04 -1.491112232E+00
 -3.301999867E-01 4.498141934E-04 -1.494322538E+00
 -3.301999867E-01 4.626515438E-04 -1.497249365E+00
 -3.301999867E-01 4.757943680E-04 -1.499973297E+00
 -3.301999867E-01 4.892724683E-04 -1.502523303E+00
 -3.301999867E-01 5.030783941E-04 -1.504904270E+00
 -3.301999867E-01 5.172270467E-04 -1.507122755E+00
 -3.301999867E-01 5.317258765E-04 -1.509120226E+00
 -3.301999867E-01 5.465972354E-04 -1.510983825E+00
 -3.301999867E-01 5.618411233E-04 -1.512715101E+00
 -3.301999867E-01 5.774798919E-04 -1.514319420E+00
 -3.301999867E-01 5.935135414E-04 -1.515778422E+00
 -3.301999867E-01 6.099644233E-04 -1.517086148E+00
 -3.301999867E-01 6.268399884E-04 -1.518284798E+00
 -3.301999867E-01 6.441551377E-04 -1.519375443E+00
 -3.301999867E-01 6.619247724E-04 -1.520359397E+00
 -3.301999867E-01 6.801637937E-04 -1.521203041E+00
 -3.301999867E-01 6.988871028E-04 -1.521939874E+00
 -3.301999867E-01 7.181096007E-04 -1.522579908E+00
 -3.301999867E-01 7.378536393E-04 -1.523124218E+00
 -3.301999867E-01 7.581266691E-04 -1.523562193E+00
 -3.301999867E-01 7.789510419E-04 -1.523876667E+00
 -3.301999867E-01 8.003416588E-04 -1.524100900E+00
 -3.301999867E-01 8.223283221E-04 -1.524233460E+00
 -3.301999867E-01 8.449184825E-04 -1.524272919E+00
 -3.301999867E-01 8.681344916E-04 -1.524195910E+00
 -3.301999867E-01 8.919987013E-04 -1.524018168E+00
 -3.301999867E-01 9.165334632E-04 -1.523748636E+00
 -3.301999867E-01 9.417611291E-04 -1.523386121E+00
 -3.301999867E-01 9.677040507E-04 -1.522925973E+00
 -3.301999867E-01 9.943920886E-04 -1.522343159E+00
 -3.301999867E-01 1.021847478E-03 -1.521665812E+00
 -3.301999867E-01 1.050092629E-03 -1.520891309E+00
 -3.301999867E-01 1.079157344E-03 -1.520017028E+00
 -3.301999867E-01 1.109071425E-03 -1.519030690E+00
 -3.301999867E-01 1.139864675E-03 -1.517925501E+00
 -3.301999867E-01 1.171566895E-03 -1.516715765E+00
 -3.301999867E-01 1.204215339E-03 -1.515397787E+00
 -3.301999867E-01 1.237832359E-03 -1.513968945E+00
 -3.301999867E-01 1.272455207E-03 -1.512414098E+00
 -3.301999867E-01 1.308128587E-03 -1.510731816E+00
 -3.301999867E-01 1.344882301E-03 -1.508930087E+00
 -3.301999867E-01 1.382753602E-03 -1.507004857E+00
 -3.301999867E-01 1.421787194E-03 -1.504951358E+00
 -3.301999867E-01 1.462027780E-03 -1.502756715E+00
 -3.301999867E-01 1.503512613E-03 -1.500414371E+00
 -3.301999867E-01 1.546286396E-03 -1.497932196E+00
 -3.301999867E-01 1.590408734E-03 -1.495303631E+00
 -3.301999867E-01 1.635916880E-03 -1.492523551E+00
 -3.301999867E-01 1.682862989E-03 -1.489585519E+00
 -3.301999867E-01 1.731306664E-03 -1.486465216E+00
 -3.301999867E-01 1.781300060E-03 -1.483176708E+00
 -3.301999867E-01 1.832902781E-03 -1.479711294E+00
 -3.301999867E-01 1.886174432E-03 -1.476061940E+00
 -3.301999867E-01 1.941182069E-03 -1.472220659E+00
 -3.301999867E-01 1.997985179E-03 -1.468174815E+00
 -3.301999867E-01 2.056665951E-03 -1.463905096E+00
 -3.301999867E-01 2.117283875E-03 -1.459417462E+00
 -3.301999867E-01 2.179913456E-03 -1.454701662E+00
 -3.301999867E-01 2.244644100E-03 -1.449745774E+00
 -3.301999867E-01 2.311557764E-03 -1.444537997E+00
 -3.301999867E-01 2.380728954E-03 -1.439066529E+00
 -3.301999867E-01 2.452254528E-03 -1.433306932E+00
 -3.301999867E-01 2.526238794E-03 -1.427249908E+00
 -3.301999867E-01 2.602763707E-03 -1.420887947E+00
 -3.301999867E-01 2.681941027E-03 -1.414203763E+00
 -3.301999867E-01 2.763882512E-03 -1.407179832E+00
 -3.301999867E-01 2.848692471E-03 -1.399799109E+00
 -3.301999867E-01 2.936505014E-03 -1.392040372E+00
 -3.301999867E-01 3.027431900E-03 -1.383883476E+00
 -3.301999867E-01 3.121614689E-03 -1.375289083E+00
 -3.301999867E-01 3.219187493E-03 -1.366245985E+00
 -3.301999867E-01 3.320291871E-03 -1.356732011E+00
 -3.301999867E-01 3.425084287E-03 -1.346718431E+00
 -3.301999867E-01 3.533736104E-03 -1.336174250E+00
 -3.301999867E-01 3.646403784E-03 -1.325068593E+00
 -3.301999867E-01 3.763273591E-03 -1.313366413E+00
 -3.301999867E-01 3.884531790E-03 -1.301030278E+00
 -3.301999867E-01 4.010387231E-03 -1.288019419E+00
 -3.301999867E-01 4.141040612E-03 -1.274291635E+00
 -3.301999867E-01 4.276723135E-03 -1.259799361E+00
 -3.301999867E-01 4.417665768E-03 -1.244487047E+00
 -3.301999867E-01 4.564136732E-03 -1.228297353E+00
 -3.301999867E-01 4.716389347E-03 -1.211184621E+00
 -3.301999867E-01 4.874706734E-03 -1.193087935E+00
 -3.301999867E-01 5.039409269E-03 -1.173939824E+00
 -3.301999867E-01 5.210802425E-03 -1.153671145E+00
 -3.301999867E-01 5.389243830E-03 -1.132205725E+00
 -3.301999867E-01 5.575106014E-03 -1.109462380E+00
 -3.301999867E-01 5.768776406E-03 -1.085356712E+00
 -3.301999867E-01 5.970687140E-03 -1.059797525E+00
 -3.301999867E-01 6.181292702E-03 -1.032689214E+00
 -3.301999867E-01 6.401084829E-03 -1.003931522E+00
 -3.301999867E-01 6.630607415E-03 -9.734178185E-01
 -3.301999867E-01 6.870434154E-03 -9.410392046E-01
 -3.301999867E-01 7.121190894E-03 -9.066835642E-01
 -3.301999867E-01 7.383555640E-03 -8.702369332E-01
 -3.301999867E-01 7.658273447E-03 -8.315910101E-01
 -3.301999867E-01 7.946163416E-03 -7.906332016E-01
 -3.301999867E-01 8.248113096E-03 -7.472475767E-01
 -3.301999867E-01 8.565112948E-03 -7.013623714E-01
 -3.301999867E-01 8.898250759E-03 -6.529247761E-01
 -3.301999867E-01 9.248726070E-03 -6.019185781E-01
 -3.301999867E-01 9.617887437E-03 -5.483742952E-01
 -3.301999867E-01 1.000723243E-02 -4.923930466E-01
 -3.301999867E-01 1.041845977E-02 -4.341742396E-01
 -3.301999867E-01 1.085346192E-02 -3.740557730E-01
 -3.301999867E-01 1.131441444E-02 -3.129830956E-01
 -3.301999867E-01 1.180378348E-02 -2.516255975E-01
 -3.301999867E-01 1.232440025E-02 -1.912167519E-01
 -3.301999867E-01 1.287955046E-02 -1.334515214E-01
 -3.301999867E-01 1.347304136E-02 -8.237539977E-02
 -3.301999867E-01 1.410935819E-02 -4.059476405E-02
 -3.301999867E-01 1.479378343E-02 -1.131972671E-02
 -3.301999867E-01 1.553262770E-02 -1.106668147E-03
 -3.301999867E-01 1.633349806E-02 -2.822822717E-05
 -3.301999867E-01 1.720564812E-02 -8.980621715E-06
 -3.301999867E-01 1.816047728E-02 -8.816181435E-06
 -3.301999867E-01 1.921221614E-02 -9.088438674E-06
 -3.301999867E-01 2.037887275E-02 -9.405162018E-06
 -3.301999867E-01 2.168361843E-02 -9.712257452E-06
 -3.301999867E-01 2.315684408E-02 -9.992782907E-06
 -3.301999867E-01 2.483921498E-02 -1.022871220E-05
 -3.301999867E-01 2.678651363E-02 -1.037707261E-05
 -3.301999867E-01 2.907747775E-02 -1.033545686E-05
 -3.301999867E-01 3.182713687E-02 -9.842334293E-06
 -3.301999867E-01 3.521059453E-02 -9.311835129E-06
ZONE T="x=-.0762"
 -7.620000094E-02 2.824068133E-06 -9.750603880E-09
 -7.620000094E-02 6.527006462E-06 -7.374300282E-08
 -7.620000094E-02 1.025974780E-05 -2.894603028E-07
 -7.620000094E-02 1.402974158E-05 -8.187464573E-07
 -7.620000094E-02 1.784443884E-05 -1.909250841E-06
 -7.620000094E-02 2.169638901E-05 -3.910163286E-06
 -7.620000094E-02 2.560049325E-05 -7.310273759E-06
 -7.620000094E-02 2.955675154E-05 -1.276431340E-05
 -7.620000094E-02 3.356516390E-05 -2.112934271E-05
 -7.620000094E-02 3.762573033E-05 -3.352099520E-05
 -7.620000094E-02 4.175335198E-05 -5.142058217E-05
 -7.620000094E-02 4.594057827E-05 -7.665880548E-05
 -7.620000094E-02 5.019485980E-05 -1.115534251E-04
 -7.620000094E-02 5.452364712E-05 -1.591630280E-04
 -7.620000094E-02 5.892694026E-05 -2.232376282E-04
 -7.620000094E-02 6.340473919E-05 -3.082925105E-04
 -7.620000094E-02 6.796449452E-05 -4.218986724E-04
 -7.620000094E-02 7.261365681E-05 -5.704917712E-04
 -7.620000094E-02 7.735222607E-05 -7.629084866E-04
 -7.620000094E-02 8.218020230E-05 -1.010109670E-03
 -7.620000094E-02 8.710503607E-05 -1.325855963E-03
 -7.620000094E-02 9.213417798E-05 -1.726742950E-03
 -7.620000094E-02 9.726762801E-05 -2.232897561E-03
 -7.620000094E-02 1.025128367E-04 -2.868476557E-03
 -7.620000094E-02 1.078698042E-04 -3.661469091E-03
 -7.620000094E-02 1.133459809E-04 -4.647411872E-03
 -7.620000094E-02 1.189488175E-04 -5.867362954E-03
 -7.620000094E-02 1.246857573E-04 -7.370613981E-03
 -7.620000094E-02 1.305493643E-04 -9.209812619E-03
 -7.620000094E-02 1.365545322E-04 -1.145115774E-02
 -7.620000094E-02 1.427012612E-04 -1.416628063E-02
 -7.620000094E-02 1.489970018E-04 -1.743696071E-02
 -7.620000094E-02 1.554566552E-04 -2.135831863E-02
 -7.620000094E-02 1.620727708E-04 -2.602157556E-02
 -7.620000094E-02 1.688527991E-04 -3.152449802E-02
 -7.620000094E-02 1.758116414E-04 -3.797516972E-02
 -7.620000094E-02 1.829492976E-04 -4.546943307E-02
 -7.620000094E-02 1.902657677E-04 -5.408240855E-02
 -7.620000094E-02 1.977834036E-04 -6.390294433E-02
 -7.620000094E-02 2.055022051E-04 -7.497454435E-02
 -7.620000094E-02 2.134221722E-04 -8.730614185E-02
 -7.620000094E-02 2.215656568E-04 -1.008990556E-01
 -7.620000094E-02 2.299252083E-04 -1.156694368E-01
 -7.620000094E-02 2.385157277E-04 -1.315709949E-01
 -7.620000094E-02 2.473446657E-04 -1.483980268E-01
 -7.620000094E-02 2.564269234E-04 -1.659926772E-01
 -7.620000094E-02 2.657625009E-04 -1.841289103E-01
 -7.620000094E-02 2.753588487E-04 -2.026142776E-01
 -7.620000094E-02 2.852383186E-04 -2.212655097E-01
 -7.620000094E-02 2.953934600E-04 -2.398659587E-01
 -7.620000094E-02 3.058466245E-04 -2.582816184E-01
 -7.620000094E-02 3.166127135E-04 -2.763875723E-01
 -7.620000094E-02 3.276842763E-04 -2.940499485E-01
 -7.620000094E-02 3.390911152E-04 -3.112199008E-01
 -7.620000094E-02 3.508332302E-04 -3.278461099E-01
 -7.620000094E-02 3.629255225E-04 -3.438910246E-01
 -7.620000094E-02 3.753828933E-04 -3.592985570E-01
 -7.620000094E-02 3.882127930E-04 -3.741820157E-01
 -7.620000094E-02 4.014375736E-04 -3.885861337E-01
 -7.620000094E-02 4.150646855E-04 -4.025498033E-01
 -7.620000094E-02 4.291090299E-04 -4.161228538E-01
 -7.620000094E-02 4.435855080E-04 -4.293530881E-01
 -7.620000094E-02 4.585090210E-04 -4.422894716E-01
 -7.620000094E-02 4.739019205E-04 -4.549881518E-01
 -7.620000094E-02 4.897716572E-04 -4.674872458E-01
 -7.620000094E-02 5.061405827E-04 -4.798289537E-01
 -7.620000094E-02 5.230310489E-04 -4.920086861E-01
 -7.620000094E-02 5.404505064E-04 -5.041199923E-01
 -7.620000094E-02 5.584213068E-04 -5.161961317E-01
 -7.620000094E-02 5.769732525E-04 -5.282762051E-01
 -7.620000094E-02 5.961137940E-04 -5.403779149E-01
 -7.620000094E-02 6.158652832E-04 -5.525264144E-01
 -7.620000094E-02 6.362649729E-04 -5.647540689E-01
 -7.620000094E-02 6.573203136E-04 -5.770717859E-01
 -7.620000094E-02 6.790611078E-04 -5.895026326E-01
 -7.620000094E-02 7.015097071E-04 -6.020514369E-01
 -7.620000094E-02 7.246884634E-04 -6.147225499E-01
 -7.620000094E-02 7.486346294E-04 -6.275600195E-01
 -7.620000094E-02 7.733705570E-04 -6.405740380E-01
 -7.620000094E-02 7.989185979E-04 -6.537703872E-01
 -7.620000094E-02 8.253160049E-04 -6.671634912E-01
 -7.620000094E-02 8.526000311E-04 -6.807677746E-01
 -7.620000094E-02 8.807855775E-04 -6.945840716E-01
 -7.620000094E-02 9.099098970E-04 -7.086211443E-01
 -7.620000094E-02 9.400251438E-04 -7.228977680E-01
 -7.620000094E-02 9.711462189E-04 -7.373972535E-01
 -7.620000094E-02 1.003317884E-03 -7.521253824E-01
 -7.620000094E-02 1.036577276E-03 -7.671037316E-01
 -7.620000094E-02 1.070961705E-03 -7.823362947E-01
 -7.620000094E-02 1.106523327E-03 -7.978327870E-01
 -7.620000094E-02 1.143299392E-03 -8.135966063E-01
 -7.620000094E-02 1.181327156E-03 -8.296269178E-01
 -7.620000094E-02 1.220666221E-03 -8.459317088E-01
 -7.620000094E-02 1.261353842E-03 -8.625110388E-01
 -7.620000094E-02 1.303442172E-03 -8.793670535E-01
 -7.620000094E-02 1.346983365E-03 -8.965024948E-01
 -7.620000094E-02 1.392037026E-03 -9.139014482E-01
 -7.620000094E-02 1.438655308E-03 -9.315672517E-01
 -7.620000094E-02 1.486897818E-03 -9.495159984E-01
 -7.620000094E-02 1.536816708E-03 -9.677406549E-01
 -7.620000094E-02 1.588479034E-03 -9.862426519E-01
 -7.620000094E-02 1.641959301E-03 -1.005024672E+00
 -7.620000094E-02 1.697309664E-03 -1.024078250E+00
 -7.620000094E-02 1.754612080E-03 -1.043402672E+00
 -7.620000094E-02 1.813933603E-03 -1.062992215E+00
 -7.620000094E-02 1.875348738E-03 -1.082841396E+00
 -7.620000094E-02 1.938946894E-03 -1.102946043E+00
 -7.620000094E-02 2.004795009E-03 -1.123295069E+00
 -7.620000094E-02 2.072982723E-03 -1.143880844E+00
 -7.620000094E-02 2.143599326E-03 -1.164665341E+00
 -7.620000094E-02 2.216741676E-03 -1.185653210E+00
 -7.620000094E-02 2.292499179E-03 -1.206841707E+00
 -7.620000094E-02 2.370968694E-03 -1.228214145E+00
 -7.620000094E-02 2.452261979E-03 -1.249758005E+00
 -7.620000094E-02 2.536475891E-03 -1.271451712E+00
 -7.620000094E-02 2.623729641E-03 -1.293277621E+00
 -7.620000094E-02 2.714127535E-03 -1.315209746E+00
 -7.620000094E-02 2.807803685E-03 -1.337228417E+00
 -7.620000094E-02 2.904869849E-03 -1.359301448E+00
 -7.620000094E-02 3.005467588E-03 -1.381403208E+00
 -7.620000094E-02 3.109723562E-03 -1.403497934E+00
 -7.620000094E-02 3.217779333E-03 -1.425550938E+00
 -7.620000094E-02 3.329783911E-03 -1.447524667E+00
 -7.620000094E-02 3.445886308E-03 -1.469375372E+00
 -7.620000094E-02 3.566250438E-03 -1.491060019E+00
 -7.620000094E-02 3.691032762E-03 -1.512526989E+00
 -7.620000094E-02 3.820404643E-03 -1.533722401E+00
 -7.620000094E-02 3.954552580E-03 -1.554568887E+00
 -7.620000094E-02 4.093654919E-03 -1.574995756E+00
 -7.620000094E-02 4.237905610E-03 -1.594963431E+00
 -7.620000094E-02 4.387513269E-03 -1.614401460E+00
 -7.620000094E-02 4.542679060E-03 -1.633232594E+00
 -7.620000094E-02 4.703619052E-03 -1.651374936E+00
 -7.620000094E-02 4.870564211E-03 -1.668741584E+00
 -7.620000094E-02 5.043760408E-03 -1.685241342E+00
 -7.620000094E-02 5.223438609E-03 -1.700773835E+00
 -7.620000094E-02 5.409867037E-03 -1.715236306E+00
 -7.620000094E-02 5.603313912E-03 -1.728518367E+00
 -7.620000094E-02 5.804054905E-03 -1.740503669E+00
 -7.620000094E-02 6.012388039E-03 -1.751070857E+00
 -7.620000094E-02 6.228611339E-03 -1.760091662E+00
 -7.620000094E-02 6.453052629E-03 -1.767433286E+00
 -7.620000094E-02 6.686032284E-03 -1.772956848E+00
 -7.620000094E-02 6.927915383E-03 -1.776518941E+00
 -7.620000094E-02 7.179059554E-03 -1.777971268E+00
 -7.620000094E-02 7.439844776E-03 -1.777161956E+00
 -7.620000094E-02 7.710665930E-03 -1.773936152E+00
 -7.620000094E-02 7.991947234E-03 -1.768136859E+00
 -7.620000094E-02 8.284121752E-03 -1.759606361E+00
 -7.620000094E-02 8.587650955E-03 -1.748186946E+00
 -7.620000094E-02 8.903026581E-03 -1.733721852E+00
 -7.620000094E-02 9.230732918E-03 -1.716059923E+00
 -7.620000094E-02 9.571328759E-03 -1.695054531E+00
 -7.620000094E-02 9.925350547E-03 -1.670568705E+00
 -7.620000094E-02 1.029340178E-02 -1.642472744E+00
 -7.620000094E-02 1.067610085E-02 -1.610650420E+00
 -7.620000094E-02 1.107409596E-02 -1.575002074E+00
 -7.620000094E-02 1.148809493E-02 -1.535442948E+00
 -7.620000094E-02 1.191882789E-02 -1.491910577E+00
 -7.620000094E-02 1.236707717E-02 -1.444363594E+00
 -7.620000094E-02 1.283366233E-02 -1.392787337E+00
 -7.620000094E-02 1.331946254E-02 -1.337193251E+00
 -7.620000094E-02 1.382542402E-02 -1.277621508E+00
 -7.620000094E-02 1.435256004E-02 -1.214142084E+00
 -7.620000094E-02 1.490192860E-02 -1.146862149E+00
 -7.620000094E-02 1.547469199E-02 -1.075922012E+00
 -7.620000094E-02 1.607210934E-02 -1.001500964E+00
 -7.620000094E-02 1.669552177E-02 -9.238252044E-01
 -7.620000094E-02 1.734639704E-02 -8.431961536E-01
 -7.620000094E-02 1.802632958E-02 -7.600241303E-01
 -7.620000094E-02 1.873708516E-02 -6.747554541E-01
 -7.620000094E-02 1.948058605E-02 -5.879893303E-01
 -7.620000094E-02 2.025897056E-02 -5.005083680E-01
 -7.620000094E-02 2.107462287E-02 -4.133526683E-01
 -7.620000094E-02 2.193022519E-02 -3.279407918E-01
 -7.620000094E-02 2.282878757E-02 -2.461235821E-01
 -7.620000094E-02 2.377377450E-02 -1.703870147E-01
 -7.620000094E-02 2.476914972E-02 -1.040043458E-01
 -7.620000094E-02 2.581951767E-02 -5.165860429E-02
 -7.620000094E-02 2.693030238E-02 -1.904624887E-02
 -7.620000094E-02 2.810794860E-02 -4.258645698E-03
 -7.620000094E-02 2.936021984E-02 -5.421738024E-04
 -7.620000094E-02 3.069660813E-02 -1.081405135E-04
 -7.620000094E-02 3.212893754E-02 -7.091238513E-05
 -7.620000094E-02 3.367214650E-02 -6.746580038E-05
 -7.620000094E-02 3.534555435E-02 -6.761844270E-05
 -7.620000094E-02 3.717470169E-02 -6.875569670E-05
 -7.620000094E-02 3.919423372E-02 -7.074742462E-05
 -7.620000094E-02 4.145266861E-02 -7.414569700E-05
 -7.620000094E-02 4.402031749E-02 -7.850779366E-05
 -7.620000094E-02 4.700368643E-02 -8.992083895E-05
ZONE T="x=.0508"
 5.079999939E-02 3.710687224E-06 1.340877409E-09
 5.079999939E-02 7.987320714E-06 9.767513909E-09
 5.079999939E-02 1.230120688E-05 3.675900473E-08
 5.079999939E-02 1.665234595E-05 9.926296229E-08
 5.079999939E-02 2.104818850E-05 2.199839457E-07
 5.079999939E-02 2.548873454E-05 4.269155056E-07
 5.079999939E-02 2.998143464E-05 7.543041534E-07
 5.079999939E-02 3.452628880E-05 1.240557367E-06
 5.079999939E-02 3.913074761E-05 1.932441137E-06
 5.079999939E-02 4.379481106E-05 2.879836302E-06
 5.079999939E-02 4.853338032E-05 4.144437298E-06
 5.079999939E-02 5.333900481E-05 5.786278052E-06
 5.079999939E-02 5.822658568E-05 7.881682905E-06
 5.079999939E-02 6.319612294E-05 1.051244544E-05
 5.079999939E-02 6.825506716E-05 1.376540695E-05
 5.079999939E-02 7.340341836E-05 1.773370968E-05
 5.079999939E-02 7.865607768E-05 2.253758248E-05
 5.079999939E-02 8.400559454E-05 2.828610923E-05
 5.079999939E-02 8.945941954E-05 3.510367605E-05
 5.079999939E-02 9.503245383E-05 4.314484613E-05
 5.079999939E-02 1.007246974E-04 5.256641452E-05
 5.079999939E-02 1.065436009E-04 6.354664947E-05
 5.079999939E-02 1.124891642E-04 7.626759179E-05
 5.079999939E-02 1.185688379E-04 9.093390690E-05
 5.079999939E-02 1.247975160E-04 1.078255227E-04
 5.079999939E-02 1.311752130E-04 1.272085647E-04
 5.079999939E-02 1.377093722E-04 1.494064636E-04
 5.079999939E-02 1.443999936E-04 1.747825299E-04
 5.079999939E-02 1.512619783E-04 2.038585662E-04
 5.079999939E-02 1.583027770E-04 2.371989685E-04
 5.079999939E-02 1.655298402E-04 2.756429021E-04
 5.079999939E-02 1.729431679E-04 3.202154185E-04
 5.079999939E-02 1.805576612E-04 3.723080154E-04
 5.079999939E-02 1.883733203E-04 4.329966032E-04
 5.079999939E-02 1.964124967E-04 5.035498762E-04
 5.079999939E-02 2.046751906E-04 5.848462461E-04
 5.079999939E-02 2.131614019E-04 6.777847884E-04
 5.079999939E-02 2.218934824E-04 7.831407711E-04
 5.079999939E-02 2.308788826E-04 9.014250827E-04
 5.079999939E-02 2.401250531E-04 1.032563974E-03
 5.079999939E-02 2.496394445E-04 1.175529091E-03
 5.079999939E-02 2.594369580E-04 1.328432700E-03
 5.079999939E-02 2.695250441E-04 1.487767440E-03
 5.079999939E-02 2.799186041E-04 1.647881349E-03
 5.079999939E-02 2.906176378E-04 1.800220809E-03
 5.079999939E-02 3.016519477E-04 1.933061169E-03
 5.079999939E-02 3.130215337E-04 2.029846190E-03
 5.079999939E-02 3.247412969E-04 2.069063485E-03
 5.079999939E-02 3.368186881E-04 2.023224020E-03
 5.079999939E-02 3.492835094E-04 1.858293195E-03
 5.079999939E-02 3.621357610E-04 1.534042764E-03
 5.079999939E-02 3.753903438E-04 1.005225349E-03
 5.079999939E-02 3.890696098E-04 2.215059649E-04
 5.079999939E-02 4.031884600E-04 -8.699723985E-04
 5.079999939E-02 4.177543451E-04 -2.314722864E-03
 5.079999939E-02 4.327970673E-04 -4.166610073E-03
 5.079999939E-02 4.483240773E-04 -6.460241042E-03
 5.079999939E-02 4.643502762E-04 -9.193584323E-03
 5.079999939E-02 4.809054662E-04 -1.236558612E-02
 5.079999939E-02 4.980045487E-04 -1.596467011E-02
 5.079999939E-02 5.156698753E-04 -1.996903121E-02
 5.079999939E-02 5.339163472E-04 -2.434989251E-02
 5.079999939E-02 5.527663161E-04 -2.907530218E-02
 5.079999939E-02 5.722421338E-04 -3.411445394E-02
 5.079999939E-02 5.923736026E-04 -3.944044560E-02
 5.079999939E-02 6.131830742E-04 -4.502721131E-02
 5.079999939E-02 6.346854498E-04 -5.085378140E-02
 5.079999939E-02 6.569179823E-04 -5.690767244E-02
 5.079999939E-02 6.799030234E-04 -6.317985803E-02
 5.079999939E-02 7.036703755E-04 -6.966204196E-02
 5.079999939E-02 7.282423903E-04 -7.635222375E-02
 5.079999939E-02 7.536563207E-04 -8.325143158E-02
 5.079999939E-02 7.799419691E-04 -9.036344290E-02
 5.079999939E-02 8.071291377E-04 -9.769387543E-02
 5.079999939E-02 8.352550794E-04 -1.052539721E-01
 5.079999939E-02 8.643495967E-04 -1.130484194E-01
 5.079999939E-02 8.944499423E-04 -1.210898086E-01
 5.079999939E-02 9.256008198E-04 -1.293901056E-01
 5.079999939E-02 9.578245808E-04 -1.379549950E-01
 5.079999939E-02 9.911808884E-04 -1.468023360E-01
 5.079999939E-02 1.025691978E-03 -1.559383273E-01
 5.079999939E-02 1.061417512E-03 -1.653788388E-01
 5.079999939E-02 1.098394743E-03 -1.751358807E-01
 5.079999939E-02 1.136675826E-03 -1.852247268E-01
 5.079999939E-02 1.176298014E-03 -1.956525445E-01
 5.079999939E-02 1.217320911E-03 -2.064352632E-01
 5.079999939E-02 1.259796671E-03 -2.175874710E-01
 5.079999939E-02 1.303777448E-03 -2.291199863E-01
 5.079999939E-02 1.349315397E-03 -2.410450131E-01
 5.079999939E-02 1.396470121E-03 -2.533786893E-01
 5.079999939E-02 1.445308677E-03 -2.661375403E-01
 5.079999939E-02 1.495883218E-03 -2.793337107E-01
 5.079999939E-02 1.548268250E-03 -2.929845750E-01
 5.079999939E-02 1.602530829E-03 -3.071045280E-01
 5.079999939E-02 1.658738009E-03 -3.217079937E-01
 5.079999939E-02 1.716964296E-03 -3.368121386E-01
 5.079999939E-02 1.777276746E-03 -3.524316847E-01
 5.079999939E-02 1.839772216E-03 -3.685876429E-01
 5.079999939E-02 1.904510311E-03 -3.852900267E-01
 5.079999939E-02 1.971595222E-03 -4.025617242E-01
 5.079999939E-02 2.041109139E-03 -4.204226732E-01
 5.079999939E-02 2.113133902E-03 -4.388835132E-01
 5.079999939E-02 2.187773818E-03 -4.579668939E-01
 5.079999939E-02 2.265133196E-03 -4.776893556E-01
 5.079999939E-02 2.345293993E-03 -4.980657101E-01
 5.079999939E-02 2.428382868E-03 -5.191215277E-01
 5.079999939E-02 2.514504129E-03 -5.408745408E-01
 5.079999939E-02 2.603762085E-03 -5.633410811E-01
 5.079999939E-02 2.696290845E-03 -5.865442157E-01
 5.079999939E-02 2.792209620E-03 -6.105068326E-01
 5.079999939E-02 2.891637618E-03 -6.352463365E-01
 5.079999939E-02 2.994723851E-03 -6.607879996E-01
 5.079999939E-02 3.101587528E-03 -6.871495247E-01
 5.079999939E-02 3.212392563E-03 -7.143577933E-01
 5.079999939E-02 3.327273065E-03 -7.424306870E-01
 5.079999939E-02 3.446400398E-03 -7.713955641E-01
 5.079999939E-02 3.569916124E-03 -8.012711406E-01
 5.079999939E-02 3.698006505E-03 -8.320846558E-01
 5.079999939E-02 3.830828005E-03 -8.638553023E-01
 5.079999939E-02 3.968582023E-03 -8.966112137E-01
 5.079999939E-02 4.111439455E-03 -9.303721189E-01
 5.079999939E-02 4.259609152E-03 -9.651636481E-01
 5.079999939E-02 4.413284827E-03 -1.001006484E+00
 5.079999939E-02 4.572675098E-03 -1.037920356E+00
 5.079999939E-02 4.738018382E-03 -1.075929999E+00
 5.079999939E-02 4.909523297E-03 -1.115051866E+00
 5.079999939E-02 5.087435711E-03 -1.155305266E+00
 5.079999939E-02 5.272001494E-03 -1.196704388E+00
 5.079999939E-02 5.463473964E-03 -1.239260435E+00
 5.079999939E-02 5.662128795E-03 -1.282986522E+00
 5.079999939E-02 5.868234206E-03 -1.327885866E+00
 5.079999939E-02 6.082088221E-03 -1.373961329E+00
 5.079999939E-02 6.303988863E-03 -1.421210647E+00
 5.079999939E-02 6.534249056E-03 -1.469622254E+00
 5.079999939E-02 6.773181725E-03 -1.519180775E+00
 5.079999939E-02 7.021144498E-03 -1.569854975E+00
 5.079999939E-02 7.278487552E-03 -1.621616721E+00
 5.079999939E-02 7.545568515E-03 -1.674423218E+00
 5.079999939E-02 7.822766900E-03 -1.728218555E+00
 5.079999939E-02 8.110500872E-03 -1.782939315E+00
 5.079999939E-02 8.409164846E-03 -1.838495851E+00
 5.079999939E-02 8.719198406E-03 -1.894788980E+00
 5.079999939E-02 9.041056037E-03 -1.951698542E+00
 5.079999939E-02 9.375207126E-03 -2.009081602E+00
 5.079999939E-02 9.722135961E-03 -2.066768885E+00
 5.079999939E-02 1.008235663E-02 -2.124564171E+00
 5.079999939E-02 1.045640558E-02 -2.182241678E+00
 5.079999939E-02 1.084483415E-02 -2.239536762E+00
 5.079999939E-02 1.124822348E-02 -2.296149015E+00
 5.079999939E-02 1.166718453E-02 -2.351734400E+00
 5.079999939E-02 1.210235804E-02 -2.405902624E+00
 5.079999939E-02 1.255439222E-02 -2.458209276E+00
 5.079999939E-02 1.302399486E-02 -2.508155823E+00
 5.079999939E-02 1.351188868E-02 -2.555182934E+00
 5.079999939E-02 1.401884109E-02 -2.598667383E+00
 5.079999939E-02 1.454564184E-02 -2.637916088E+00
 5.079999939E-02 1.509314030E-02 -2.672167301E+00
 5.079999939E-02 1.566220820E-02 -2.700585842E+00
 5.079999939E-02 1.625378430E-02 -2.722265482E+00
 5.079999939E-02 1.686882973E-02 -2.736229420E+00
 5.079999939E-02 1.750838757E-02 -2.741361618E+00
 5.079999939E-02 1.817353070E-02 -2.736513853E+00
 5.079999939E-02 1.886542141E-02 -2.720635653E+00
 5.079999939E-02 1.958525926E-02 -2.692572594E+00
 5.079999939E-02 2.033434808E-02 -2.651180506E+00
 5.079999939E-02 2.111405879E-02 -2.595362663E+00
 5.079999939E-02 2.192585170E-02 -2.524116278E+00
 5.079999939E-02 2.277129143E-02 -2.436589956E+00
 5.079999939E-02 2.365205437E-02 -2.332148552E+00
 5.079999939E-02 2.456995100E-02 -2.210435390E+00
 5.079999939E-02 2.552693337E-02 -2.071517706E+00
 5.079999939E-02 2.652512491E-02 -1.915918231E+00
 5.079999939E-02 2.756682038E-02 -1.744730353E+00
 5.079999939E-02 2.865456790E-02 -1.559711218E+00
 5.079999939E-02 2.979116142E-02 -1.363378882E+00
 5.079999939E-02 3.097970784E-02 -1.159092784E+00
 5.079999939E-02 3.222369403E-02 -9.511309266E-01
 5.079999939E-02 3.352705389E-02 -7.447382212E-01
 5.079999939E-02 3.489428014E-02 -5.462021828E-01
 5.079999939E-02 3.633057326E-02 -3.631900847E-01
 5.079999939E-02 3.784199804E-02 -2.074663639E-01
 5.079999939E-02 3.943573684E-02 -9.092299640E-02
 5.079999939E-02 4.112044722E-02 -2.285849489E-02
 5.079999939E-02 4.290672392E-02 3.398630070E-04
 5.079999939E-02 4.480779916E-02 1.414564322E-03
 5.079999939E-02 4.684054852E-02 2.919098188E-04
 5.079999939E-02 4.902703315E-02 1.543511316E-04
 5.079999939E-02 5.139689147E-02 1.543699473E-04
 5.079999939E-02 5.399126559E-02 1.772949327E-04
 5.079999939E-02 5.686938018E-02 2.449944732E-04
 5.079999939E-02 6.012038141E-02 3.641524236E-04
ZONE T="x=.1016"
 1.015999988E-01 3.770291869E-06 2.067342075E-09
 1.015999988E-01 8.091628843E-06 1.528736426E-08
 1.015999988E-01 1.243531733E-05 5.756264443E-08
 1.015999988E-01 1.682370930E-05 1.559058092E-07
 1.015999988E-01 2.124190360E-05 3.453444606E-07
 1.015999988E-01 2.571225195E-05 6.706250133E-07
 1.015999988E-01 3.022730380E-05 1.185069436E-06
 1.015999988E-01 3.479450970E-05 1.950635806E-06
 1.015999988E-01 3.942132025E-05 3.040233651E-06
 1.015999988E-01 4.411518603E-05 4.535492735E-06
 1.015999988E-01 4.887610703E-05 6.528434369E-06
 1.015999988E-01 5.370408326E-05 9.120170034E-06
 1.015999988E-01 5.861401587E-05 1.243158476E-05
 1.015999988E-01 6.361335545E-05 1.659305781E-05