# NACA 4412, alpha=13.87, Re=1.52 million, 897x257 grid, CFL3D with Wilcox2006 model
#    x = x/c
#    y = y/c
#    uv = (u'v'/Uinf^2)/(0.93^2)
#    (0.93^2 needed to put normalization in terms of experimental ref location below and behind airfoil)
VARIABLES = "x","y","uv"
ZONE T="x=.6753"
 6.753000021E-01 7.061254978E-02 -1.766848994E-11
 6.753003001E-01 7.061452419E-02 -1.418761497E-10
 6.753006577E-01 7.061649859E-02 -3.499520951E-10
 6.753009558E-01 7.061848789E-02 -1.281185935E-09
 6.753013134E-01 7.062049210E-02 -2.695075940E-09
 6.753016114E-01 7.062251866E-02 -6.859666613E-09
 6.753019691E-01 7.062456012E-02 -1.256986959E-08
 6.753023267E-01 7.062663883E-02 -2.631359486E-08
 6.753026843E-01 7.062875479E-02 -4.356941830E-08
 6.753030419E-01 7.063090801E-02 -8.109733329E-08
 6.753033996E-01 7.063310593E-02 -1.240777294E-07
 6.753037572E-01 7.063535601E-02 -2.142922284E-07
 6.753041148E-01 7.063765824E-02 -3.178805628E-07
 6.753045321E-01 7.064002752E-02 -5.080995038E-07
 6.753048897E-01 7.064246386E-02 -7.445009373E-07
 6.753053069E-01 7.064497471E-02 -1.108353558E-06
 6.753057241E-01 7.064756751E-02 -1.608649768E-06
 6.753062010E-01 7.065024227E-02 -2.258921768E-06
 6.753066182E-01 7.065301389E-02 -3.266901331E-06
 6.753070951E-01 7.065588981E-02 -4.487073511E-06
 6.753076315E-01 7.065887004E-02 -6.297600976E-06
 6.753081083E-01 7.066196203E-02 -8.633590369E-06
 6.753086448E-01 7.066518068E-02 -1.152704681E-05
 6.753091812E-01 7.066853344E-02 -1.585778591E-05
 6.753097773E-01 7.067202032E-02 -2.110885180E-05
 6.753103733E-01 7.067565620E-02 -2.771949767E-05
 6.753109694E-01 7.067944854E-02 -3.691658640E-05
 6.753116250E-01 7.068340480E-02 -4.791629908E-05
 6.753123403E-01 7.068753988E-02 -6.139461038E-05
 6.753129959E-01 7.069186121E-02 -7.908324187E-05
 6.753137708E-01 7.069637626E-02 -9.987100930E-05
 6.753145456E-01 7.070109993E-02 -1.242961007E-04
 6.753153801E-01 7.070604712E-02 -1.536490163E-04
 6.753162146E-01 7.071122527E-02 -1.876975439E-04
 6.753171086E-01 7.071664929E-02 -2.255375293E-04
 6.753180027E-01 7.072233409E-02 -2.676234872E-04
 6.753190160E-01 7.072828710E-02 -3.140071349E-04
 6.753200293E-01 7.073453069E-02 -3.633694723E-04
 6.753211021E-01 7.074107230E-02 -4.148755106E-04
 6.753222346E-01 7.074794173E-02 -4.684701853E-04
 6.753234267E-01 7.075513899E-02 -5.234295386E-04
 6.753246784E-01 7.076269388E-02 -5.781849031E-04
 6.753259301E-01 7.077062130E-02 -6.324150017E-04
 6.753273010E-01 7.077894360E-02 -6.862182636E-04
 6.753287315E-01 7.078767568E-02 -7.392176776E-04
 6.753302813E-01 7.079684734E-02 -7.907924592E-04
 6.753318310E-01 7.080647349E-02 -8.399889339E-04
 6.753334999E-01 7.081657648E-02 -8.876713109E-04
 6.753352284E-01 7.082719356E-02 -9.338839445E-04
 6.753370762E-01 7.083833963E-02 -9.786084993E-04
 6.753389835E-01 7.085005194E-02 -1.021887641E-03
 6.753410101E-01 7.086235285E-02 -1.062832773E-03
 6.753431559E-01 7.087527215E-02 -1.102519105E-03
 6.753453612E-01 7.088883966E-02 -1.141008688E-03
 6.753476858E-01 7.090310007E-02 -1.178473351E-03
 6.753501892E-01 7.091808319E-02 -1.215047785E-03
 6.753527522E-01 7.093381882E-02 -1.250624890E-03
 6.753554940E-01 7.095035911E-02 -1.285076258E-03
 6.753582954E-01 7.096773386E-02 -1.318933675E-03
 6.753613353E-01 7.098598778E-02 -1.352361287E-03
 6.753644943E-01 7.100518048E-02 -1.385455020E-03
 6.753677726E-01 7.102534175E-02 -1.418297063E-03
 6.753712296E-01 7.104652375E-02 -1.450947020E-03
 6.753749251E-01 7.106878608E-02 -1.483220025E-03
 6.753787398E-01 7.109218836E-02 -1.515543088E-03
 6.753827929E-01 7.111677527E-02 -1.547997468E-03
 6.753870249E-01 7.114262134E-02 -1.580673037E-03
 6.753914952E-01 7.116977870E-02 -1.613647328E-03
 6.753962040E-01 7.119832188E-02 -1.647008583E-03
 6.754010916E-01 7.122831792E-02 -1.680612098E-03
 6.754062772E-01 7.125984132E-02 -1.714676851E-03
 6.754117012E-01 7.129298151E-02 -1.749315648E-03
 6.754174232E-01 7.132780552E-02 -1.784607070E-03
 6.754234433E-01 7.136441022E-02 -1.820622711E-03
 6.754297614E-01 7.140287757E-02 -1.857425552E-03
 6.754364371E-01 7.144331187E-02 -1.895049005E-03
 6.754434109E-01 7.148580253E-02 -1.933383872E-03
 6.754507422E-01 7.153046876E-02 -1.972680911E-03
 6.754584312E-01 7.157741487E-02 -2.012975980E-03
 6.754665375E-01 7.162676007E-02 -2.054349054E-03
 6.754750609E-01 7.167862356E-02 -2.096855082E-03
 6.754840016E-01 7.173313200E-02 -2.140543656E-03
 6.754934192E-01 7.179042697E-02 -2.185388235E-03
 6.755033135E-01 7.185064256E-02 -2.231384395E-03
 6.755136847E-01 7.191393524E-02 -2.278700471E-03
 6.755245924E-01 7.198046148E-02 -2.327386057E-03
 6.755360961E-01 7.205038518E-02 -2.377497265E-03
 6.755481362E-01 7.212388515E-02 -2.429083688E-03
 6.755608320E-01 7.220113277E-02 -2.482191892E-03
 6.755741835E-01 7.228232920E-02 -2.536709653E-03
 6.755881906E-01 7.236767560E-02 -2.592721954E-03
 6.756029129E-01 7.245738059E-02 -2.650339156E-03
 6.756184101E-01 7.255166769E-02 -2.709608059E-03
 6.756346822E-01 7.265076786E-02 -2.770560794E-03
 6.756517887E-01 7.275493443E-02 -2.833237872E-03
 6.756697297E-01 7.286442071E-02 -2.897645347E-03
 6.756886840E-01 7.297950238E-02 -2.963570878E-03
 6.757085323E-01 7.310046256E-02 -3.031159053E-03
 6.757293940E-01 7.322760671E-02 -3.100488801E-03
 6.757513285E-01 7.336124033E-02 -3.171560355E-03
 6.757743955E-01 7.350170612E-02 -3.244373016E-03
 6.757986546E-01 7.364934683E-02 -3.318901174E-03
 6.758241057E-01 7.380452752E-02 -3.395113396E-03
 6.758509278E-01 7.396764308E-02 -3.472557524E-03
 6.758790612E-01 7.413908839E-02 -3.551485017E-03
 6.759086251E-01 7.431929559E-02 -3.631895874E-03
 6.759397388E-01 7.450871170E-02 -3.713702317E-03
 6.759724617E-01 7.470779866E-02 -3.796782112E-03
 6.760067940E-01 7.491706312E-02 -3.880983219E-03
 6.760429144E-01 7.513701916E-02 -3.966186196E-03
 6.760808825E-01 7.536821812E-02 -4.051452968E-03
 6.761207581E-01 7.561122626E-02 -4.137213342E-03
 6.761627197E-01 7.586664706E-02 -4.223281983E-03
 6.762068272E-01 7.613512129E-02 -4.309367388E-03
 6.762531400E-01 7.641731948E-02 -4.395054188E-03
 6.763018370E-01 7.671392709E-02 -4.479957744E-03
 6.763530374E-01 7.702569664E-02 -4.563623108E-03
 6.764068604E-01 7.735339552E-02 -4.644447938E-03
 6.764634252E-01 7.769784331E-02 -4.722873680E-03
 6.765228510E-01 7.805988193E-02 -4.798369482E-03
 6.765853167E-01 7.844042033E-02 -4.870291799E-03
 6.766510010E-01 7.884040475E-02 -4.937462509E-03
 6.767200232E-01 7.926083356E-02 -4.999192432E-03
 6.767926216E-01 7.970273495E-02 -5.054248031E-03
 6.768688560E-01 8.016721904E-02 -5.099826958E-03
 6.769490242E-01 8.065544069E-02 -5.136328284E-03
 6.770333052E-01 8.116860688E-02 -5.162458867E-03
 6.771218777E-01 8.170799166E-02 -5.176967476E-03
 6.772149801E-01 8.227493614E-02 -5.177626386E-03
 6.773127913E-01 8.287085593E-02 -5.163099617E-03
 6.774156690E-01 8.349721879E-02 -5.130894482E-03
 6.775237918E-01 8.415558934E-02 -5.076703615E-03
 6.776373982E-01 8.484759927E-02 -5.001209211E-03
 6.777568460E-01 8.557496965E-02 -4.902673885E-03
 6.778823733E-01 8.633950353E-02 -4.792244639E-03
 6.780143380E-01 8.714310825E-02 -4.659421276E-03
 6.781530380E-01 8.798776567E-02 -4.469519015E-03
 6.782987714E-01 8.887559175E-02 -4.211678170E-03
 6.784520149E-01 8.980877697E-02 -3.913632128E-03
 6.786130667E-01 9.078964591E-02 -3.577891039E-03
 6.787824035E-01 9.182063490E-02 -3.206794616E-03
 6.789603233E-01 9.290430695E-02 -2.809180412E-03
 6.791473627E-01 9.404335171E-02 -2.397148637E-03
 6.793439388E-01 9.524059296E-02 -1.984507777E-03
 6.795505881E-01 9.649901092E-02 -1.590710948E-03
 6.797677875E-01 9.782173485E-02 -1.238095807E-03
 6.799960732E-01 9.921204299E-02 -9.297784418E-04
 6.802359819E-01 1.006733850E-01 -6.679006037E-04
 6.804882288E-01 1.022094041E-01 -4.505769466E-04
 6.807532907E-01 1.038239077E-01 -2.753987210E-04
 6.810319424E-01 1.055209115E-01 -1.406268857E-04
 6.813248396E-01 1.073046178E-01 -5.177117418E-05
 6.816326976E-01 1.091794744E-01 -1.465734840E-05
 6.819562912E-01 1.111501232E-01 -2.003696636E-06
 6.822963953E-01 1.132214740E-01 4.311273187E-07
 6.826539040E-01 1.153986603E-01 1.933976961E-07
 6.830296516E-01 1.176870912E-01 -4.373952578E-08
 6.834245920E-01 1.200924516E-01 -5.577320650E-08
 6.838397384E-01 1.226207241E-01 -2.886605621E-08
 6.842761040E-01 1.252781898E-01 -1.392920979E-08
 6.847347617E-01 1.280714273E-01 -5.627393218E-09
 6.852168441E-01 1.310074031E-01 -1.954401752E-09
 6.857236028E-01 1.340934038E-01 -6.588901647E-10
 6.862561703E-01 1.373370737E-01 -2.290427986E-10
 6.868160367E-01 1.407464892E-01 -6.839369349E-11
 6.874044538E-01 1.443301290E-01 -1.871541810E-11
 6.880229712E-01 1.480968595E-01 -3.560612742E-12
 6.886730790E-01 1.520560831E-01 3.882221964E-13
 6.893563867E-01 1.562175900E-01 1.542863602E-12
 6.900746226E-01 1.605917513E-01 2.179802129E-12
 6.908295751E-01 1.651894003E-01 2.723092585E-12
 6.916230917E-01 1.700219959E-01 3.340733506E-12
 6.924571395E-01 1.751015037E-01 4.077398575E-12
 6.933338046E-01 1.804405749E-01 4.924157436E-12
 6.942552924E-01 1.860524565E-01 5.850067392E-12
 6.952238083E-01 1.919510812E-01 6.848497464E-12
 6.962418556E-01 1.981510967E-01 7.913809365E-12
 6.973119378E-01 2.046679258E-01 9.054026626E-12
 6.984366775E-01 2.115177512E-01 1.027102622E-11
 6.996188760E-01 2.187175751E-01 1.156431461E-11
 7.008615136E-01 2.262852788E-01 1.292844998E-11
 7.021676302E-01 2.342396826E-01 1.437768828E-11
 7.035405040E-01 2.426005304E-01 1.591490655E-11
 7.049834728E-01 2.513885796E-01 1.753501511E-11
 7.065002322E-01 2.606256902E-01 1.924828352E-11
 7.080944777E-01 2.703347802E-01 2.105633723E-11
 7.097701430E-01 2.805399597E-01 2.294546324E-11
 7.115314603E-01 2.912665904E-01 2.492697888E-11
 7.133827806E-01 3.025413454E-01 2.700448025E-11
 7.153286934E-01 3.143922091E-01 2.916679745E-11
 7.173740864E-01 3.268485963E-01 3.142085550E-11
 7.195239067E-01 3.399414718E-01 3.376003643E-11
 7.217836380E-01 3.537033498E-01 3.618283798E-11
ZONE T="x=.7308"
 7.307999730E-01 6.140028313E-02 -1.462381540E-12
 7.308003306E-01 6.140225381E-02 -5.405688050E-12
 7.308006883E-01 6.140422821E-02 -3.736609633E-11
 7.308010459E-01 6.140621379E-02 -1.097091376E-10
 7.308014035E-01 6.140821055E-02 -3.746166710E-10
 7.308017612E-01 6.141022965E-02 -8.692437325E-10
 7.308021188E-01 6.141227484E-02 -2.156470558E-09
 7.308024764E-01 6.141434982E-02 -4.180737534E-09
 7.308028340E-01 6.141645461E-02 -8.695125508E-09
 7.308031917E-01 6.141860411E-02 -1.484484091E-08
 7.308036089E-01 6.142079830E-02 -2.787138520E-08
 7.308040261E-01 6.142304465E-02 -4.329750425E-08
 7.308043838E-01 6.142534688E-02 -7.580611339E-08
 7.308048010E-01 6.142770872E-02 -1.148732380E-07
 7.308052182E-01 6.143014133E-02 -1.838141230E-07
 7.308056951E-01 6.143264845E-02 -2.767351646E-07
 7.308061123E-01 6.143523380E-02 -4.089843628E-07
 7.308065891E-01 6.143790856E-02 -6.103362011E-07
 7.308071256E-01 6.144067645E-02 -8.589819913E-07
 7.308076024E-01 6.144354120E-02 -1.259009764E-06
 7.308081388E-01 6.144651771E-02 -1.776505087E-06
 7.308086753E-01 6.144960597E-02 -2.452669833E-06
 7.308092117E-01 6.145282090E-02 -3.472710887E-06
 7.308098078E-01 6.145616248E-02 -4.749254003E-06
 7.308104038E-01 6.145964563E-02 -6.449307875E-06
 7.308110595E-01 6.146327406E-02 -8.869530575E-06
 7.308117151E-01 6.146705896E-02 -1.189389513E-05
 7.308124304E-01 6.147101149E-02 -1.574379712E-05
 7.308131456E-01 6.147513911E-02 -2.117395888E-05
 7.308139205E-01 6.147945300E-02 -2.788567508E-05
 7.308146954E-01 6.148396060E-02 -3.614118032E-05
 7.308155298E-01 6.148868054E-02 -4.692987568E-05
 7.308164239E-01 6.149361655E-02 -6.036942432E-05
 7.308173180E-01 6.149878725E-02 -7.641769480E-05
 7.308182716E-01 6.150420010E-02 -9.547697118E-05
 7.308192253E-01 6.150987372E-02 -1.185250076E-04
 7.308202982E-01 6.151581928E-02 -1.452408760E-04
 7.308213711E-01 6.152205169E-02 -1.751906675E-04
 7.308225632E-01 6.152858585E-02 -2.084694570E-04
 7.308237553E-01 6.153543666E-02 -2.450586762E-04
 7.308250070E-01 6.154262647E-02 -2.844691917E-04
 7.308263183E-01 6.155017018E-02 -3.255601914E-04
 7.308277488E-01 6.155808643E-02 -3.681571980E-04
 7.308291793E-01 6.156639382E-02 -4.116936761E-04
 7.308307290E-01 6.157511100E-02 -4.559162480E-04
 7.308323383E-01 6.158426777E-02 -4.994664341E-04
 7.308340073E-01 6.159387901E-02 -5.424131523E-04
 7.308357954E-01 6.160397083E-02 -5.847231369E-04
 7.308376431E-01 6.161456928E-02 -6.261749077E-04
 7.308396101E-01 6.162570044E-02 -6.666994304E-04
 7.308416367E-01 6.163739040E-02 -7.057763869E-04
 7.308438420E-01 6.164967269E-02 -7.434280706E-04
 7.308461070E-01 6.166257337E-02 -7.800371968E-04
 7.308484912E-01 6.167612597E-02 -8.157026605E-04
 7.308509946E-01 6.169036031E-02 -8.504688740E-04
 7.308536172E-01 6.170532107E-02 -8.844550466E-04
 7.308563590E-01 6.172103435E-02 -9.174388833E-04
 7.308592796E-01 6.173754856E-02 -9.496037965E-04
 7.308623195E-01 6.175490096E-02 -9.812745266E-04
 7.308655381E-01 6.177313253E-02 -1.012581983E-03
 7.308688760E-01 6.179229170E-02 -1.043601776E-03
 7.308723927E-01 6.181242317E-02 -1.074432395E-03
 7.308761477E-01 6.183357909E-02 -1.105124247E-03
 7.308800220E-01 6.185581163E-02 -1.135546016E-03
 7.308841348E-01 6.187917665E-02 -1.166065806E-03
 7.308884263E-01 6.190373376E-02 -1.196774305E-03
 7.308930159E-01 6.192953885E-02 -1.227761852E-03
 7.308977842E-01 6.195665896E-02 -1.259073731E-03
 7.309027910E-01 6.198516488E-02 -1.290809130E-03
 7.309080362E-01 6.201511994E-02 -1.322868164E-03
 7.309135795E-01 6.204660609E-02 -1.355410903E-03
 7.309193611E-01 6.207969412E-02 -1.388560748E-03
 7.309255004E-01 6.211447343E-02 -1.422417350E-03
 7.309318781E-01 6.215102598E-02 -1.457015635E-03
 7.309386730E-01 6.218944490E-02 -1.492443262E-03
 7.309457660E-01 6.222982705E-02 -1.528747380E-03
 7.309532166E-01 6.227226555E-02 -1.565795275E-03
 7.309610248E-01 6.231687218E-02 -1.603816636E-03
 7.309693098E-01 6.236375868E-02 -1.642892836E-03
 7.309779525E-01 6.241303682E-02 -1.683059731E-03
 7.309870124E-01 6.246483326E-02 -1.724381116E-03
 7.309966087E-01 6.251927465E-02 -1.766926493E-03
 7.310066819E-01 6.257649511E-02 -1.810708200E-03
 7.310172319E-01 6.263663620E-02 -1.855643000E-03
 7.310283184E-01 6.269985437E-02 -1.901933574E-03
 7.310400009E-01 6.276629865E-02 -1.949634985E-03
 7.310522795E-01 6.283613294E-02 -1.998796128E-03
 7.310651541E-01 6.290954351E-02 -2.049474046E-03
 7.310787439E-01 6.298670173E-02 -2.101722406E-03
 7.310929894E-01 6.306780130E-02 -2.155506285E-03
 7.311079502E-01 6.315304339E-02 -2.210780047E-03
 7.311236858E-01 6.324263662E-02 -2.267729724E-03
 7.311402559E-01 6.333681196E-02 -2.326413989E-03
 7.311576605E-01 6.343580037E-02 -2.386863809E-03
 7.311758995E-01 6.353984028E-02 -2.449107356E-03
 7.311951518E-01 6.364920735E-02 -2.513208892E-03
 7.312153578E-01 6.376415491E-02 -2.579048742E-03
 7.312365770E-01 6.388497353E-02 -2.646596637E-03
 7.312588692E-01 6.401196867E-02 -2.716040239E-03
 7.312823534E-01 6.414546072E-02 -2.787409117E-03
 7.313069701E-01 6.428576261E-02 -2.860694658E-03
 7.313328981E-01 6.443323940E-02 -2.935921308E-03
 7.313601375E-01 6.458825618E-02 -3.013079753E-03
 7.313887477E-01 6.475118548E-02 -3.091945546E-03
 7.314188480E-01 6.492244452E-02 -3.172476776E-03
 7.314504981E-01 6.510245800E-02 -3.254858078E-03
 7.314836979E-01 6.529167295E-02 -3.339036135E-03
 7.315186858E-01 6.549055129E-02 -3.424962750E-03
 7.315554023E-01 6.569959223E-02 -3.512548516E-03
 7.315939665E-01 6.591931731E-02 -3.601701930E-03
 7.316345572E-01 6.615027785E-02 -3.691966878E-03
 7.316772342E-01 6.639303267E-02 -3.783239285E-03
 7.317220569E-01 6.664819270E-02 -3.875663038E-03
 7.317692041E-01 6.691639870E-02 -3.969055600E-03
 7.318187356E-01 6.719830632E-02 -4.063185770E-03
 7.318707705E-01 6.749462336E-02 -4.157743882E-03
 7.319254875E-01 6.780607998E-02 -4.252484534E-03
 7.319830060E-01 6.813345850E-02 -4.346420057E-03
 7.320435047E-01 6.847756356E-02 -4.439339507E-03
 7.321070433E-01 6.883925200E-02 -4.531197716E-03
 7.321738005E-01 6.921942532E-02 -4.621567670E-03
 7.322440147E-01 6.961902976E-02 -4.709771834E-03
 7.323178053E-01 7.003905624E-02 -4.795033485E-03
 7.323954105E-01 7.048054785E-02 -4.876778461E-03
 7.324769497E-01 7.094459981E-02 -4.952909425E-03
 7.325626612E-01 7.143236697E-02 -5.022967700E-03
 7.326527238E-01 7.194506377E-02 -5.086415913E-03
 7.327473760E-01 7.248395681E-02 -5.142384209E-03
 7.328469157E-01 7.305039465E-02 -5.189060234E-03
 7.329515219E-01 7.364577800E-02 -5.225148052E-03
 7.330614924E-01 7.427158952E-02 -5.249162670E-03
 7.331770658E-01 7.492938638E-02 -5.256936420E-03
 7.332985401E-01 7.562079281E-02 -5.247731693E-03
 7.334262133E-01 7.634753734E-02 -5.220258143E-03
 7.335604429E-01 7.711142302E-02 -5.171943922E-03
 7.337015271E-01 7.791434973E-02 -5.100902636E-03
 7.338498235E-01 7.875830680E-02 -5.007504486E-03
 7.340056896E-01 7.964538783E-02 -4.897932988E-03
 7.341694832E-01 8.057781309E-02 -4.765606020E-03
 7.343416810E-01 8.155788481E-02 -4.546661396E-03
 7.345227003E-01 8.258804679E-02 -4.282575101E-03
 7.347129583E-01 8.367084712E-02 -3.978138324E-03
 7.349129319E-01 8.480899036E-02 -3.633221146E-03
 7.351230979E-01 8.600530028E-02 -3.250730457E-03
 7.353440523E-01 8.726274222E-02 -2.836622298E-03
 7.355762720E-01 8.858445287E-02 -2.407762688E-03
 7.358203530E-01 8.997370303E-02 -1.985556213E-03
 7.360768914E-01 9.143395722E-02 -1.586933271E-03
 7.363466024E-01 9.296883643E-02 -1.224566018E-03
 7.366300821E-01 9.458214790E-02 -9.070095839E-04
 7.369279861E-01 9.627791494E-02 -6.383520667E-04
 7.372411489E-01 9.806034714E-02 -4.187286540E-04
 7.375703454E-01 9.993386269E-02 -2.545938478E-04
 7.379163504E-01 1.019031331E-01 -1.352561958E-04
 7.382800579E-01 1.039730385E-01 -6.076241698E-05
 7.386623025E-01 1.061487272E-01 -2.274171311E-05
 7.390640974E-01 1.084356010E-01 -8.293262908E-06
 7.394864559E-01 1.108393520E-01 -3.938810096E-06
 7.399303913E-01 1.133659482E-01 -2.142388212E-06
 7.403969765E-01 1.160216630E-01 -1.168304834E-06
 7.408874035E-01 1.188130975E-01 -5.879412583E-07
 7.414029241E-01 1.217471883E-01 -2.732042788E-07
 7.419447899E-01 1.248312294E-01 -1.212768268E-07
 7.425143719E-01 1.280728728E-01 -5.078423726E-08
 7.431130409E-01 1.314801872E-01 -2.026831325E-08
 7.437422872E-01 1.350616366E-01 -7.704526794E-09
 7.444037199E-01 1.388261169E-01 -3.417321759E-09
 7.450989485E-01 1.427829713E-01 -1.457811760E-09
 7.458297014E-01 1.469420493E-01 -5.911275358E-10
 7.465977669E-01 1.513136774E-01 -2.398270749E-10
 7.474051118E-01 1.559087187E-01 -1.086409435E-10
 7.482537627E-01 1.607385874E-01 -5.974746392E-11
 7.491457462E-01 1.658152938E-01 -4.158729611E-11
 7.500832677E-01 1.711514294E-01 -3.522966988E-11
 7.510687709E-01 1.767602861E-01 -3.192854661E-11
 7.521045804E-01 1.826557815E-01 -2.978857785E-11
 7.531933784E-01 1.888525635E-01 -2.808204710E-11
 7.543377876E-01 1.953660399E-01 -2.649874244E-11
 7.555406690E-01 2.022123784E-01 -2.490815540E-11
 7.568050623E-01 2.094085962E-01 -2.325778806E-11
 7.581340671E-01 2.169725895E-01 -2.153891822E-11
 7.595309615E-01 2.249231488E-01 -1.974573977E-11
 7.609992623E-01 2.332800031E-01 -1.786477043E-11
 7.625426054E-01 2.420639545E-01 -1.589701981E-11
 7.641648054E-01 2.512967885E-01 -1.383811642E-11
 7.658699155E-01 2.610014975E-01 -1.168249959E-11
 7.676621675E-01 2.712021470E-01 -9.438687679E-12
 7.695460320E-01 2.819240987E-01 -7.104479331E-12
 7.715261579E-01 2.931939960E-01 -4.673687652E-12
 7.736074924E-01 3.050398827E-01 -2.149335397E-12
 7.757951617E-01 3.174911141E-01 4.746175783E-13
 7.780946493E-01 3.305786848E-01 3.193401923E-12
 7.805116773E-01 3.443350792E-01 6.015567384E-12
ZONE T="x=.7863"
 7.863000035E-01 5.103440955E-02 -4.548871181E-14
 7.863003612E-01 5.103637278E-02 -9.407892217E-13
 7.863007784E-01 5.103834346E-02 -3.350035093E-12
 7.863011360E-01 5.104032159E-02 -2.000004155E-11
 7.863014936E-01 5.104231462E-02 -5.183461993E-11
 7.863019109E-01 5.104433000E-02 -1.664839239E-10
 7.863022685E-01 5.104636773E-02 -3.631090151E-10
 7.863026857E-01 5.104843527E-02 -8.346782154E-10
 7.863031030E-01 5.105053633E-02 -1.636003777E-09
 7.863035202E-01 5.105267838E-02 -3.074308808E-09
 7.863039374E-01 5.105486885E-02 -5.569838368E-09
 7.863043547E-01 5.105710775E-02 -9.220316066E-09
 7.863047719E-01 5.105940253E-02 -1.579682696E-08
 7.863052487E-01 5.106176063E-02 -2.404941135E-08
 7.863057256E-01 5.106418580E-02 -3.981769225E-08
 7.863062024E-01 5.106668547E-02 -5.925554092E-08
 7.863066792E-01 5.106926337E-02 -9.068136819E-08
 7.863072157E-01 5.107193068E-02 -1.347959255E-07
 7.863077521E-01 5.107469112E-02 -1.924328785E-07
 7.863082886E-01 5.107754841E-02 -2.857567551E-07
 7.863088250E-01 5.108051747E-02 -4.029153899E-07
 7.863094211E-01 5.108359829E-02 -5.691574074E-07
 7.863100171E-01 5.108680204E-02 -8.083375747E-07
 7.863106728E-01 5.109013617E-02 -1.113686835E-06
 7.863113284E-01 5.109360814E-02 -1.542751761E-06
 7.863120437E-01 5.109722912E-02 -2.141705181E-06
 7.863127589E-01 5.110100657E-02 -2.904931534E-06
 7.863135338E-01 5.110494792E-02 -3.926900263E-06
 7.863143086E-01 5.110906437E-02 -5.368713119E-06
 7.863151431E-01 5.111336708E-02 -7.194417776E-06
 7.863159776E-01 5.111786351E-02 -9.525113455E-06
 7.863169312E-01 5.112257227E-02 -1.272627833E-05
 7.863178253E-01 5.112749711E-02 -1.687318218E-05
 7.863188386E-01 5.113265291E-02 -2.204256089E-05
 7.863198519E-01 5.113805458E-02 -2.850607052E-05
 7.863209844E-01 5.114371330E-02 -3.689746882E-05
 7.863221169E-01 5.114964396E-02 -4.732040543E-05
 7.863233089E-01 5.115586147E-02 -5.973994121E-05
 7.863245606E-01 5.116238073E-02 -7.458326581E-05
 7.863258719E-01 5.116921663E-02 -9.202514775E-05
 7.863272429E-01 5.117639154E-02 -1.125705894E-04
 7.863286734E-01 5.118391663E-02 -1.355927379E-04
 7.863301635E-01 5.119181424E-02 -1.608854218E-04
 7.863317728E-01 5.120010301E-02 -1.885314996E-04
 7.863334417E-01 5.120880157E-02 -2.180803422E-04
 7.863351703E-01 5.121793598E-02 -2.490195620E-04
 7.863370180E-01 5.122752488E-02 -2.809137513E-04
 7.863389850E-01 5.123759806E-02 -3.133534628E-04
 7.863410115E-01 5.124817044E-02 -3.461361339E-04
 7.863430977E-01 5.125927925E-02 -3.789570183E-04
 7.863453627E-01 5.127094314E-02 -4.113657633E-04
 7.863476872E-01 5.128319934E-02 -4.430984554E-04
 7.863501906E-01 5.129607022E-02 -4.743658646E-04
 7.863527536E-01 5.130959302E-02 -5.050468026E-04
 7.863554955E-01 5.132380128E-02 -5.352659500E-04
 7.863583565E-01 5.133872852E-02 -5.649649538E-04
 7.863613367E-01 5.135441199E-02 -5.940112751E-04
 7.863644958E-01 5.137088895E-02 -6.224155077E-04
 7.863678336E-01 5.138820410E-02 -6.505318452E-04
 7.863713503E-01 5.140640214E-02 -6.784152356E-04
 7.863749862E-01 5.142552033E-02 -7.061475189E-04
 7.863788605E-01 5.144561455E-02 -7.338245050E-04
 7.863829136E-01 5.146672577E-02 -7.614913047E-04
 7.863871455E-01 5.148891732E-02 -7.890013512E-04
 7.863916159E-01 5.151223764E-02 -8.167167543E-04
 7.863963246E-01 5.153674260E-02 -8.447034634E-04
 7.864012718E-01 5.156249925E-02 -8.730295813E-04
 7.864064574E-01 5.158956721E-02 -9.017852135E-04
 7.864118814E-01 5.161801726E-02 -9.310191963E-04
 7.864176631E-01 5.164791644E-02 -9.607491666E-04
 7.864236832E-01 5.167934299E-02 -9.909924120E-04
 7.864300013E-01 5.171237141E-02 -1.021931181E-03
 7.864366770E-01 5.174708739E-02 -1.053627580E-03
 7.864436507E-01 5.178357288E-02 -1.086136908E-03
 7.864509821E-01 5.182192102E-02 -1.119529945E-03
 7.864587307E-01 5.186222866E-02 -1.153869438E-03
 7.864668369E-01 5.190459266E-02 -1.189090777E-03
 7.864754200E-01 5.194912106E-02 -1.225331216E-03
 7.864843607E-01 5.199592188E-02 -1.262671081E-03
 7.864938378E-01 5.204511434E-02 -1.301176962E-03
 7.865037322E-01 5.209682137E-02 -1.340905670E-03
 7.865141630E-01 5.215116590E-02 -1.381914713E-03
 7.865250707E-01 5.220828950E-02 -1.424250309E-03
 7.865366340E-01 5.226833373E-02 -1.467861584E-03
 7.865487337E-01 5.233144015E-02 -1.512866700E-03
 7.865614295E-01 5.239777640E-02 -1.559365657E-03
 7.865747809E-01 5.246749893E-02 -1.607403392E-03
 7.865888476E-01 5.254078656E-02 -1.657047658E-03
 7.866036296E-01 5.261781812E-02 -1.708340715E-03
 7.866191268E-01 5.269878358E-02 -1.761332154E-03
 7.866354585E-01 5.278389156E-02 -1.815904398E-03
 7.866526246E-01 5.287334695E-02 -1.872250112E-03
 7.866706848E-01 5.296737328E-02 -1.930439845E-03
 7.866896391E-01 5.306620896E-02 -1.990516437E-03
 7.867095470E-01 5.317009240E-02 -2.052524360E-03
 7.867304683E-01 5.327928439E-02 -2.116512507E-03
 7.867524624E-01 5.339406058E-02 -2.182522323E-03
 7.867755890E-01 5.351470038E-02 -2.250327729E-03
 7.867999077E-01 5.364150926E-02 -2.320211846E-03
 7.868254781E-01 5.377480015E-02 -2.392206341E-03
 7.868523598E-01 5.391490087E-02 -2.466337057E-03
 7.868806124E-01 5.406216532E-02 -2.542634495E-03
 7.869102955E-01 5.421695858E-02 -2.621119842E-03
 7.869414687E-01 5.437966064E-02 -2.701771213E-03
 7.869742513E-01 5.455068126E-02 -2.784272656E-03
 7.870087624E-01 5.473044515E-02 -2.868947340E-03
 7.870449424E-01 5.491939560E-02 -2.955776174E-03
 7.870830297E-01 5.511800572E-02 -3.044740297E-03
 7.871230841E-01 5.532677099E-02 -3.135842271E-03
 7.871651649E-01 5.554620549E-02 -3.229026916E-03
 7.872093916E-01 5.577685311E-02 -3.324161284E-03
 7.872558832E-01 5.601929501E-02 -3.420737106E-03
 7.873047590E-01 5.627413094E-02 -3.519124351E-03
 7.873561382E-01 5.654199421E-02 -3.619198687E-03
 7.874100804E-01 5.682354793E-02 -3.720812965E-03
 7.874668837E-01 5.711949244E-02 -3.823910840E-03
 7.875264883E-01 5.743056908E-02 -3.928276245E-03
 7.875891924E-01 5.775754526E-02 -4.033525940E-03
 7.876551151E-01 5.810124055E-02 -4.138799384E-03
 7.877243757E-01 5.846250057E-02 -4.244484007E-03
 7.877972126E-01 5.884223059E-02 -4.350149073E-03
 7.878737450E-01 5.924136937E-02 -4.455492832E-03
 7.879542112E-01 5.966091156E-02 -4.560141359E-03
 7.880387306E-01 6.010190398E-02 -4.663662985E-03
 7.881276608E-01 6.056543812E-02 -4.765069112E-03
 7.882210612E-01 6.105266884E-02 -4.862786736E-03
 7.883192897E-01 6.156480312E-02 -4.956997465E-03
 7.884225249E-01 6.210312247E-02 -5.046863109E-03
 7.885310054E-01 6.266895682E-02 -5.131516606E-03
 7.886450291E-01 6.326371431E-02 -5.209894851E-03
 7.887649536E-01 6.388888508E-02 -5.280951504E-03
 7.888909578E-01 6.454600394E-02 -5.342618562E-03
 7.890233994E-01 6.523671746E-02 -5.391560961E-03
 7.891626358E-01 6.596274674E-02 -5.427695345E-03
 7.893089652E-01 6.672587991E-02 -5.449326243E-03
 7.894627452E-01 6.752803177E-02 -5.454338621E-03
 7.896244526E-01 6.837118417E-02 -5.440452136E-03
 7.897943854E-01 6.925744563E-02 -5.405189004E-03
 7.899730206E-01 7.018900663E-02 -5.343729630E-03
 7.901607752E-01 7.116819173E-02 -5.253767595E-03
 7.903581262E-01 7.219742984E-02 -5.161396228E-03
 7.905656099E-01 7.327928394E-02 -5.007224623E-03
 7.907836437E-01 7.441644371E-02 -4.792090971E-03
 7.910128832E-01 7.561173290E-02 -4.534604494E-03
 7.912538052E-01 7.686812431E-02 -4.232800100E-03
 7.915070057E-01 7.818873972E-02 -3.882427933E-03
 7.917732000E-01 7.957687229E-02 -3.485096619E-03
 7.920529842E-01 8.103596419E-02 -3.054627916E-03
 7.923470736E-01 8.256964386E-02 -2.605489688E-03
 7.926562428E-01 8.418171853E-02 -2.155281138E-03
 7.929811478E-01 8.587621152E-02 -1.723148627E-03
 7.933226824E-01 8.765732497E-02 -1.325881924E-03
 7.936816812E-01 8.952948451E-02 -9.823193541E-04
 7.940590382E-01 9.149735421E-02 -7.009042311E-04
 7.944557071E-01 9.356581420E-02 -4.728157655E-04
 7.948725820E-01 9.574002028E-02 -2.944681910E-04
 7.953108549E-01 9.802536666E-02 -1.642921270E-04
 7.957714796E-01 1.004275456E-01 -8.014848572E-05
 7.962556481E-01 1.029525176E-01 -3.604965968E-05
 7.967645526E-01 1.056065708E-01 -1.816018448E-05
 7.972995043E-01 1.083962992E-01 -9.916524505E-06
 7.978618145E-01 1.113286316E-01 -5.285253337E-06
 7.984528542E-01 1.144108698E-01 -2.682126251E-06
 7.990741134E-01 1.176506728E-01 -1.287694886E-06
 7.997271419E-01 1.210560948E-01 -5.747383511E-07
 8.004134893E-01 1.246355996E-01 -2.412797926E-07
 8.011350036E-01 1.283980906E-01 -1.035633233E-07
 8.018933535E-01 1.323529184E-01 -4.716632063E-08
 8.026905060E-01 1.365099102E-01 -2.000897936E-08
 8.035283685E-01 1.408794224E-01 -7.979024552E-09
 8.044090867E-01 1.454722881E-01 -3.099274171E-09
 8.053348064E-01 1.502999514E-01 -1.186262422E-09
 8.063079119E-01 1.553743929E-01 -4.617695393E-10
 8.073306680E-01 1.607082486E-01 -2.200343657E-10
 8.084057570E-01 1.663147658E-01 -1.308682052E-10
 8.095358014E-01 1.722078919E-01 -9.083746949E-11
 8.107236624E-01 1.784022748E-01 -7.458150070E-11
 8.119722009E-01 1.849133074E-01 -6.756346177E-11
 8.132845163E-01 1.917572021E-01 -6.375029671E-11
 8.146640062E-01 1.989509314E-01 -6.103414302E-11
 8.161139488E-01 2.065124214E-01 -5.863792091E-11
 8.176380396E-01 2.144604474E-01 -5.627873514E-11
 8.192400336E-01 2.228147835E-01 -5.389112420E-11
 8.209239244E-01 2.315961719E-01 -5.143951584E-11
 8.226938844E-01 2.408264875E-01 -4.892175207E-11
 8.245543242E-01 2.505286336E-01 -4.632262629E-11
 8.265098929E-01 2.607267797E-01 -4.364485162E-11
 8.285654187E-01 2.714462280E-01 -4.089183159E-11
 8.307260275E-01 2.827136815E-01 -3.806022511E-11
 8.329970837E-01 2.945571244E-01 -3.513419763E-11
 8.353842497E-01 3.070059717E-01 -3.211688207E-11
 8.378934264E-01 3.200912178E-01 -2.900106023E-11
 8.405308723E-01 3.338454068E-01 -2.579142108E-11
ZONE T="x=.8418"
 8.417999744E-01 3.950987384E-02 0.000000000E+00
 8.418003917E-01 3.951183334E-02 -5.291866459E-14
 8.418008089E-01 3.951379657E-02 -1.621974446E-13
 8.418012261E-01 3.951577097E-02 -1.305171791E-12
 8.418016434E-01 3.951775655E-02 -3.348471890E-12
 8.418020606E-01 3.951976448E-02 -1.278612285E-11
 8.418024778E-01 3.952179849E-02 -2.691474994E-11
 8.418028951E-01 3.952385858E-02 -7.259697010E-11
 8.418033123E-01 3.952595592E-02 -1.310862113E-10
 8.418037295E-01 3.952809423E-02 -2.926053844E-10
 8.418042064E-01 3.953027725E-02 -4.861633318E-10
 8.418046832E-01 3.953250870E-02 -9.428332559E-10
 8.418051600E-01 3.953479603E-02 -1.537129424E-09
 8.418056369E-01 3.953715041E-02 -2.591717951E-09