# NACA 4412, alpha=13.87, Re=1.52 million, 897x257 grid, CFL3D with SA model
#    x = x/c
#    y = y/c
#    uv = (u'v'/Uinf^2)/(0.93^2)
#    (0.93^2 needed to put normalization in terms of experimental ref location below and behind airfoil)
VARIABLES = "x","y","uv"
ZONE T="x=.6753"
 6.753000021E-01 7.061254978E-02 -9.896086034E-11
 6.753003001E-01 7.061452419E-02 -3.705524776E-10
 6.753006577E-01 7.061649859E-02 -8.150953246E-10
 6.753009558E-01 7.061848789E-02 -1.853142861E-09
 6.753013134E-01 7.062049210E-02 -3.358576084E-09
 6.753016114E-01 7.062251866E-02 -6.155850496E-09
 6.753019691E-01 7.062456012E-02 -9.839019377E-09
 6.753023267E-01 7.062663883E-02 -1.607500266E-08
 6.753026843E-01 7.062875479E-02 -2.368046736E-08
 6.753030419E-01 7.063090801E-02 -3.610406196E-08
 6.753033996E-01 7.063310593E-02 -5.008993398E-08
 6.753037572E-01 7.063535601E-02 -7.313648354E-08
 6.753041148E-01 7.063765824E-02 -9.843457605E-08
 6.753045321E-01 7.064002752E-02 -1.380239070E-07
 6.753048897E-01 7.064246386E-02 -1.828168763E-07
 6.753053069E-01 7.064497471E-02 -2.469369349E-07
 6.753057241E-01 7.064756751E-02 -3.242408582E-07
 6.753062010E-01 7.065024227E-02 -4.222201540E-07
 6.753066182E-01 7.065301389E-02 -5.558213729E-07
 6.753070951E-01 7.065588981E-02 -7.103427038E-07
 6.753076315E-01 7.065887004E-02 -9.255814462E-07
 6.753081083E-01 7.066196203E-02 -1.180448180E-06
 6.753086448E-01 7.066518068E-02 -1.491517082E-06
 6.753091812E-01 7.066853344E-02 -1.924801154E-06
 6.753097773E-01 7.067202032E-02 -2.426457286E-06
 6.753103733E-01 7.067565620E-02 -3.054349463E-06
 6.753109694E-01 7.067944854E-02 -3.898252089E-06
 6.753116250E-01 7.068340480E-02 -4.886760053E-06
 6.753123403E-01 7.068753988E-02 -6.111879884E-06
 6.753129959E-01 7.069186121E-02 -7.752183592E-06
 6.753137708E-01 7.069637626E-02 -9.705160664E-06
 6.753145456E-01 7.070109993E-02 -1.208615140E-05
 6.753153801E-01 7.070604712E-02 -1.515142776E-05
 6.753162146E-01 7.071122527E-02 -1.901788528E-05
 6.753171086E-01 7.071664929E-02 -2.364445936E-05
 6.753180027E-01 7.072233409E-02 -2.932482312E-05
 6.753190160E-01 7.072828710E-02 -3.653824751E-05
 6.753200293E-01 7.073453069E-02 -4.547728167E-05
 6.753211021E-01 7.074107230E-02 -5.610630615E-05
 6.753222346E-01 7.074794173E-02 -6.894014223E-05
 6.753234267E-01 7.075513899E-02 -8.460297249E-05
 6.753246784E-01 7.076269388E-02 -1.039742565E-04
 6.753259301E-01 7.077062130E-02 -1.262906153E-04
 6.753273010E-01 7.077894360E-02 -1.522810489E-04
 6.753287315E-01 7.078767568E-02 -1.824934589E-04
 6.753302813E-01 7.079684734E-02 -2.174106194E-04
 6.753318310E-01 7.080647349E-02 -2.568900818E-04
 6.753334999E-01 7.081657648E-02 -2.997449483E-04
 6.753352284E-01 7.082719356E-02 -3.460932930E-04
 6.753370762E-01 7.083833963E-02 -3.955425927E-04
 6.753389835E-01 7.085005194E-02 -4.474304151E-04
 6.753410101E-01 7.086235285E-02 -4.999893717E-04
 6.753431559E-01 7.087527215E-02 -5.524130538E-04
 6.753453612E-01 7.088883966E-02 -6.040629814E-04
 6.753476858E-01 7.090310007E-02 -6.544890348E-04
 6.753501892E-01 7.091808319E-02 -7.031940622E-04
 6.753527522E-01 7.093381882E-02 -7.494504098E-04
 6.753554940E-01 7.095035911E-02 -7.925671525E-04
 6.753582954E-01 7.096773386E-02 -8.334706654E-04
 6.753613353E-01 7.098598778E-02 -8.723824285E-04
 6.753644943E-01 7.100518048E-02 -9.094811394E-04
 6.753677726E-01 7.102534175E-02 -9.449693025E-04
 6.753712296E-01 7.104652375E-02 -9.790916229E-04
 6.753749251E-01 7.106878608E-02 -1.011742163E-03
 6.753787398E-01 7.109218836E-02 -1.043791650E-03
 6.753827929E-01 7.111677527E-02 -1.075457782E-03
 6.753870249E-01 7.114262134E-02 -1.106949523E-03
 6.753914952E-01 7.116977870E-02 -1.138461055E-03
 6.753962040E-01 7.119832188E-02 -1.170186209E-03
 6.754010916E-01 7.122831792E-02 -1.202089945E-03
 6.754062772E-01 7.125984132E-02 -1.234478899E-03
 6.754117012E-01 7.129298151E-02 -1.267514774E-03
 6.754174232E-01 7.132780552E-02 -1.301313750E-03
 6.754234433E-01 7.136441022E-02 -1.335983397E-03
 6.754297614E-01 7.140287757E-02 -1.371619874E-03
 6.754364371E-01 7.144331187E-02 -1.408286626E-03
 6.754434109E-01 7.148580253E-02 -1.445940812E-03
 6.754507422E-01 7.153046876E-02 -1.484796754E-03
 6.754584312E-01 7.157741487E-02 -1.524902182E-03
 6.754665375E-01 7.162676007E-02 -1.566352090E-03
 6.754750609E-01 7.167862356E-02 -1.609213534E-03
 6.754840016E-01 7.173313200E-02 -1.653550426E-03
 6.754934192E-01 7.179042697E-02 -1.699363929E-03
 6.755033135E-01 7.185064256E-02 -1.746666734E-03
 6.755136847E-01 7.191393524E-02 -1.795602846E-03
 6.755245924E-01 7.198046148E-02 -1.846232451E-03
 6.755360961E-01 7.205038518E-02 -1.898624585E-03
 6.755481362E-01 7.212388515E-02 -1.952842460E-03
 6.755608320E-01 7.220113277E-02 -2.008942422E-03
 6.755741835E-01 7.228232920E-02 -2.066849498E-03
 6.755881906E-01 7.236767560E-02 -2.126645995E-03
 6.756029129E-01 7.245738059E-02 -2.188435989E-03
 6.756184101E-01 7.255166769E-02 -2.252282109E-03
 6.756346822E-01 7.265076786E-02 -2.318230458E-03
 6.756517887E-01 7.275493443E-02 -2.386337379E-03
 6.756697297E-01 7.286442071E-02 -2.456621267E-03
 6.756886840E-01 7.297950238E-02 -2.528910292E-03
 6.757085323E-01 7.310046256E-02 -2.603342757E-03
 6.757293940E-01 7.322760671E-02 -2.680008067E-03
 6.757513285E-01 7.336124033E-02 -2.758926013E-03
 6.757743955E-01 7.350170612E-02 -2.840116154E-03
 6.757986546E-01 7.364934683E-02 -2.923572902E-03
 6.758241057E-01 7.380452752E-02 -3.009285778E-03
 6.758509278E-01 7.396764308E-02 -3.096846398E-03
 6.758790612E-01 7.413908839E-02 -3.186508315E-03
 6.759086251E-01 7.431929559E-02 -3.278297838E-03
 6.759397388E-01 7.450871170E-02 -3.372152336E-03
 6.759724617E-01 7.470779866E-02 -3.467972856E-03
 6.760067940E-01 7.491706312E-02 -3.565629711E-03
 6.760429144E-01 7.513701916E-02 -3.665031167E-03
 6.760808825E-01 7.536821812E-02 -3.765265225E-03
 6.761207581E-01 7.561122626E-02 -3.866766347E-03
 6.761627197E-01 7.586664706E-02 -3.969374578E-03
 6.762068272E-01 7.613512129E-02 -4.072809592E-03
 6.762531400E-01 7.641731948E-02 -4.176646471E-03
 6.763018370E-01 7.671392709E-02 -4.280496389E-03
 6.763530374E-01 7.702569664E-02 -4.383900668E-03
 6.764068604E-01 7.735339552E-02 -4.485172220E-03
 6.764634252E-01 7.769784331E-02 -4.584743176E-03
 6.765228510E-01 7.805988193E-02 -4.682040773E-03
 6.765853167E-01 7.844042033E-02 -4.776358604E-03
 6.766510010E-01 7.884040475E-02 -4.866330419E-03
 6.767200232E-01 7.926083356E-02 -4.951170646E-03
 6.767926216E-01 7.970273495E-02 -5.029443186E-03
 6.768688560E-01 8.016721904E-02 -5.097867455E-03
 6.769490242E-01 8.065544069E-02 -5.156720523E-03
 6.770333052E-01 8.116860688E-02 -5.204366986E-03
 6.771218777E-01 8.170799166E-02 -5.239177961E-03
 6.772149801E-01 8.227493614E-02 -5.258166697E-03
 6.773127913E-01 8.287085593E-02 -5.259452388E-03
 6.774156690E-01 8.349721879E-02 -5.239569582E-03
 6.775237918E-01 8.415558934E-02 -5.192348734E-03
 6.776373982E-01 8.484759927E-02 -5.117926747E-03
 6.777568460E-01 8.557496965E-02 -5.012948066E-03
 6.778823733E-01 8.633950353E-02 -4.873066675E-03
 6.780143380E-01 8.714310825E-02 -4.695902579E-03
 6.781530380E-01 8.798776567E-02 -4.477365408E-03
 6.782987714E-01 8.887559175E-02 -4.212266766E-03
 6.784520149E-01 8.980877697E-02 -3.894171910E-03
 6.786130667E-01 9.078964591E-02 -3.527028719E-03
 6.787824035E-01 9.182063490E-02 -3.110370599E-03
 6.789603233E-01 9.290430695E-02 -2.649433678E-03
 6.791473627E-01 9.404335171E-02 -2.154049464E-03
 6.793439388E-01 9.524059296E-02 -1.638001646E-03
 6.795505881E-01 9.649901092E-02 -1.129826298E-03
 6.797677875E-01 9.782173485E-02 -6.901905872E-04
 6.799960732E-01 9.921204299E-02 -3.599230258E-04
 6.802359819E-01 1.006733850E-01 -1.522553357E-04
 6.804882288E-01 1.022094041E-01 -4.626854934E-05
 6.807532907E-01 1.038239077E-01 -7.786483366E-06
 6.810319424E-01 1.055209115E-01 -2.489773863E-07
 6.813248396E-01 1.073046178E-01 -2.119501801E-07
 6.816326976E-01 1.091794744E-01 -2.122798293E-07
 6.819562912E-01 1.111501232E-01 -1.401440102E-07
 6.822963953E-01 1.132214740E-01 -8.044044364E-08
 6.826539040E-01 1.153986603E-01 -5.163648353E-08
 6.830296516E-01 1.176870912E-01 -3.946138349E-08
 6.834245920E-01 1.200924516E-01 -3.439408758E-08
 6.838397384E-01 1.226207241E-01 -3.213374100E-08
 6.842761040E-01 1.252781898E-01 -3.066155685E-08
 6.847347617E-01 1.280714273E-01 -2.936922527E-08
 6.852168441E-01 1.310074031E-01 -2.813127686E-08
 6.857236028E-01 1.340934038E-01 -2.688975975E-08
 6.862561703E-01 1.373370737E-01 -2.562281232E-08
 6.868160367E-01 1.407464892E-01 -2.430596879E-08
 6.874044538E-01 1.443301290E-01 -2.293066537E-08
 6.880229712E-01 1.480968595E-01 -2.149371703E-08
 6.886730790E-01 1.520560831E-01 -1.999938348E-08
 6.893563867E-01 1.562175900E-01 -1.844878916E-08
 6.900746226E-01 1.605917513E-01 -1.683579498E-08
 6.908295751E-01 1.651894003E-01 -1.516147030E-08
 6.916230917E-01 1.700219959E-01 -1.342137601E-08
 6.924571395E-01 1.751015037E-01 -1.164456176E-08
 6.933338046E-01 1.804405749E-01 -9.822747060E-09
 6.942552924E-01 1.860524565E-01 -7.952204228E-09
 6.952238083E-01 1.919510812E-01 -6.037514932E-09
 6.962418556E-01 1.981510967E-01 -4.098957174E-09
 6.973119378E-01 2.046679258E-01 -2.124368459E-09
 6.984366775E-01 2.115177512E-01 -1.208679545E-10
 6.996188760E-01 2.187175751E-01 1.890190227E-09
 7.008615136E-01 2.262852788E-01 3.897978829E-09
 7.021676302E-01 2.342396826E-01 5.909616352E-09
 7.035405040E-01 2.426005304E-01 7.917150491E-09
 7.049834728E-01 2.513885796E-01 9.894273845E-09
 7.065002322E-01 2.606256902E-01 1.185091580E-08
 7.080944777E-01 2.703347802E-01 1.377965031E-08
 7.097701430E-01 2.805399597E-01 1.564747798E-08
 7.115314603E-01 2.912665904E-01 1.743966749E-08
 7.133827806E-01 3.025413454E-01 1.916967562E-08
 7.153286934E-01 3.143922091E-01 2.080808592E-08
 7.173740864E-01 3.268485963E-01 2.237452534E-08
 7.195239067E-01 3.399414718E-01 2.384976838E-08
 7.217836380E-01 3.537033498E-01 2.521605325E-08
ZONE T="x=.7308"
 7.307999730E-01 6.140028313E-02 -2.711079625E-12
 7.308003306E-01 6.140225381E-02 -1.030583344E-11
 7.308006883E-01 6.140422821E-02 -3.499758816E-11
 7.308010459E-01 6.140621379E-02 -8.839700499E-11
 7.308014035E-01 6.140821055E-02 -1.944294309E-10
 7.308017612E-01 6.141022965E-02 -3.783915126E-10
 7.308021188E-01 6.141227484E-02 -6.874327219E-10
 7.308024764E-01 6.141434982E-02 -1.149109030E-09
 7.308028340E-01 6.141645461E-02 -1.877221267E-09
 7.308031917E-01 6.141860411E-02 -2.843197455E-09
 7.308036089E-01 6.142079830E-02 -4.381662144E-09
 7.308040261E-01 6.142304465E-02 -6.175881584E-09
 7.308043838E-01 6.142534688E-02 -9.168683590E-09
 7.308048010E-01 6.142770872E-02 -1.252805504E-08
 7.308052182E-01 6.143014133E-02 -1.781080350E-08
 7.308056951E-01 6.143264845E-02 -2.409251287E-08
 7.308061123E-01 6.143523380E-02 -3.276693761E-08
 7.308065891E-01 6.143790856E-02 -4.412044419E-08
 7.308071256E-01 6.144067645E-02 -5.772659151E-08
 7.308076024E-01 6.144354120E-02 -7.769089194E-08
 7.308081388E-01 6.144651771E-02 -1.014375002E-07
 7.308086753E-01 6.144960597E-02 -1.319401690E-07
 7.308092117E-01 6.145282090E-02 -1.738452937E-07
 7.308098078E-01 6.145616248E-02 -2.236384233E-07
 7.308104038E-01 6.145964563E-02 -2.892806208E-07
 7.308110595E-01 6.146327406E-02 -3.766878365E-07
 7.308117151E-01 6.146705896E-02 -4.822013011E-07
 7.308124304E-01 6.147101149E-02 -6.164740967E-07
 7.308131456E-01 6.147513911E-02 -8.013954584E-07
 7.308139205E-01 6.147945300E-02 -1.026501650E-06
 7.308146954E-01 6.148396060E-02 -1.304524289E-06
 7.308155298E-01 6.148868054E-02 -1.683342816E-06
 7.308164239E-01 6.149361655E-02 -2.164248144E-06
 7.308173180E-01 6.149878725E-02 -2.762179520E-06
 7.308182716E-01 6.150420010E-02 -3.512307785E-06
 7.308192253E-01 6.150987372E-02 -4.519845334E-06
 7.308202982E-01 6.151581928E-02 -5.808090918E-06
 7.308213711E-01 6.152205169E-02 -7.417790130E-06
 7.308225632E-01 6.152858585E-02 -9.434471394E-06
 7.308237553E-01 6.153543666E-02 -1.202826297E-05
 7.308250070E-01 6.154262647E-02 -1.549280569E-05
 7.308263183E-01 6.155017018E-02 -1.977813190E-05
 7.308277488E-01 6.155808643E-02 -2.513790605E-05
 7.308291793E-01 6.156639382E-02 -3.178123006E-05
 7.308307290E-01 6.157511100E-02 -4.021081259E-05
 7.308323383E-01 6.158426777E-02 -5.109245467E-05
 7.308340073E-01 6.159387901E-02 -6.420136197E-05
 7.308357954E-01 6.160397083E-02 -8.005582640E-05
 7.308376431E-01 6.161456928E-02 -9.898433927E-05
 7.308396101E-01 6.162570044E-02 -1.214857184E-04
 7.308416367E-01 6.163739040E-02 -1.481130894E-04
 7.308438420E-01 6.164967269E-02 -1.784604246E-04
 7.308461070E-01 6.166257337E-02 -2.119667915E-04
 7.308484912E-01 6.167612597E-02 -2.484293072E-04
 7.308509946E-01 6.169036031E-02 -2.873018093E-04
 7.308536172E-01 6.170532107E-02 -3.280238307E-04
 7.308563590E-01 6.172103435E-02 -3.694334300E-04
 7.308592796E-01 6.173754856E-02 -4.104279797E-04
 7.308623195E-01 6.175490096E-02 -4.506522964E-04
 7.308655381E-01 6.177313253E-02 -4.898189800E-04
 7.308688760E-01 6.179229170E-02 -5.276549491E-04
 7.308723927E-01 6.181242317E-02 -5.640446325E-04
 7.308761477E-01 6.183357909E-02 -5.988912308E-04
 7.308800220E-01 6.185581163E-02 -6.320019020E-04
 7.308841348E-01 6.187917665E-02 -6.641750806E-04
 7.308884263E-01 6.190373376E-02 -6.956212455E-04
 7.308930159E-01 6.192953885E-02 -7.265800959E-04
 7.308977842E-01 6.195665896E-02 -7.572463946E-04
 7.309027910E-01 6.198516488E-02 -7.878608303E-04
 7.309080362E-01 6.201511994E-02 -8.184417384E-04
 7.309135795E-01 6.204660609E-02 -8.493094356E-04
 7.309193611E-01 6.207969412E-02 -8.806806291E-04
 7.309255004E-01 6.211447343E-02 -9.127218509E-04
 7.309318781E-01 6.215102598E-02 -9.455282125E-04
 7.309386730E-01 6.218944490E-02 -9.792386554E-04
 7.309457660E-01 6.222982705E-02 -1.013952191E-03
 7.309532166E-01 6.227226555E-02 -1.049614162E-03
 7.309610248E-01 6.231687218E-02 -1.086429227E-03
 7.309693098E-01 6.236375868E-02 -1.124504954E-03
 7.309779525E-01 6.241303682E-02 -1.163901645E-03
 7.309870124E-01 6.246483326E-02 -1.204701839E-03
 7.309966087E-01 6.251927465E-02 -1.247000298E-03
 7.310066819E-01 6.257649511E-02 -1.290837186E-03
 7.310172319E-01 6.263663620E-02 -1.336175250E-03
 7.310283184E-01 6.269985437E-02 -1.383165829E-03
 7.310400009E-01 6.276629865E-02 -1.431892393E-03
 7.310522795E-01 6.283613294E-02 -1.482420485E-03
 7.310651541E-01 6.290954351E-02 -1.534822397E-03
 7.310787439E-01 6.298670173E-02 -1.589179737E-03
 7.310929894E-01 6.306780130E-02 -1.645482844E-03
 7.311079502E-01 6.315304339E-02 -1.703714719E-03
 7.311236858E-01 6.324263662E-02 -1.764022629E-03
 7.311402559E-01 6.333681196E-02 -1.826498308E-03
 7.311576605E-01 6.343580037E-02 -1.891189837E-03
 7.311758995E-01 6.353984028E-02 -1.958141336E-03
 7.311951518E-01 6.364920735E-02 -2.027451061E-03
 7.312153578E-01 6.376415491E-02 -2.099020407E-03
 7.312365770E-01 6.388497353E-02 -2.172840293E-03
 7.312588692E-01 6.401196867E-02 -2.249078127E-03
 7.312823534E-01 6.414546072E-02 -2.327798167E-03
 7.313069701E-01 6.428576261E-02 -2.409012290E-03
 7.313328981E-01 6.443323940E-02 -2.492771251E-03
 7.313601375E-01 6.458825618E-02 -2.579098335E-03
 7.313887477E-01 6.475118548E-02 -2.667802852E-03
 7.314188480E-01 6.492244452E-02 -2.758868504E-03
 7.314504981E-01 6.510245800E-02 -2.852487378E-03
 7.314836979E-01 6.529167295E-02 -2.948646434E-03
 7.315186858E-01 6.549055129E-02 -3.047335893E-03
 7.315554023E-01 6.569959223E-02 -3.148504300E-03
 7.315939665E-01 6.591931731E-02 -3.252097405E-03
 7.316345572E-01 6.615027785E-02 -3.357715905E-03
 7.316772342E-01 6.639303267E-02 -3.465285292E-03
 7.317220569E-01 6.664819270E-02 -3.574978327E-03
 7.317692041E-01 6.691639870E-02 -3.686655778E-03
 7.318187356E-01 6.719830632E-02 -3.800124861E-03
 7.318707705E-01 6.749462336E-02 -3.915105015E-03
 7.319254875E-01 6.780607998E-02 -4.031387158E-03
 7.319830060E-01 6.813345850E-02 -4.148017149E-03
 7.320435047E-01 6.847756356E-02 -4.264792893E-03
 7.321070433E-01 6.883925200E-02 -4.381687846E-03
 7.321738005E-01 6.921942532E-02 -4.498296417E-03
 7.322440147E-01 6.961902976E-02 -4.613918718E-03
 7.323178053E-01 7.003905624E-02 -4.727727734E-03
 7.323954105E-01 7.048054785E-02 -4.839143250E-03
 7.324769497E-01 7.094459981E-02 -4.945926368E-03
 7.325626612E-01 7.143236697E-02 -5.047519691E-03
 7.326527238E-01 7.194506377E-02 -5.143280607E-03
 7.327473760E-01 7.248395681E-02 -5.232251249E-03
 7.328469157E-01 7.305039465E-02 -5.312247202E-03
 7.329515219E-01 7.364577800E-02 -5.381722469E-03
 7.330614924E-01 7.427158952E-02 -5.438873544E-03
 7.331770658E-01 7.492938638E-02 -5.478606094E-03
 7.332985401E-01 7.562079281E-02 -5.499655381E-03
 7.334262133E-01 7.634753734E-02 -5.500105210E-03
 7.335604429E-01 7.711142302E-02 -5.476272665E-03
 7.337015271E-01 7.791434973E-02 -5.425529554E-03
 7.338498235E-01 7.875830680E-02 -5.343904253E-03
 7.340056896E-01 7.964538783E-02 -5.227409303E-03
 7.341694832E-01 8.057781309E-02 -5.065969191E-03
 7.343416810E-01 8.155788481E-02 -4.858548287E-03
 7.345227003E-01 8.258804679E-02 -4.601475783E-03
 7.347129583E-01 8.367084712E-02 -4.290769342E-03
 7.349129319E-01 8.480899036E-02 -3.924766555E-03
 7.351230979E-01 8.600530028E-02 -3.503096988E-03
 7.353440523E-01 8.726274222E-02 -3.025433747E-03
 7.355762720E-01 8.858445287E-02 -2.494670451E-03
 7.358203530E-01 8.997370303E-02 -1.933976193E-03
 7.360768914E-01 9.143395722E-02 -1.378941117E-03
 7.363466024E-01 9.296883643E-02 -8.766205865E-04
 7.366300821E-01 9.458214790E-02 -4.733779060E-04
 7.369279861E-01 9.627791494E-02 -2.014370693E-04
 7.372411489E-01 9.806034714E-02 -6.228015991E-05
 7.375703454E-01 9.993386269E-02 -2.028889685E-05
 7.379163504E-01 1.019031331E-01 -6.086163921E-06
 7.382800579E-01 1.039730385E-01 -2.213849257E-06
 7.386623025E-01 1.061487272E-01 -1.119284775E-06
 7.390640974E-01 1.084356010E-01 -5.109648669E-07
 7.394864559E-01 1.108393520E-01 -2.393904879E-07
 7.399303913E-01 1.133659482E-01 -1.384870814E-07
 7.403969765E-01 1.160216630E-01 -1.041722584E-07
 7.408874035E-01 1.188130975E-01 -8.752446945E-08
 7.414029241E-01 1.217471883E-01 -7.928403534E-08
 7.419447899E-01 1.248312294E-01 -7.474633179E-08
 7.425143719E-01 1.280728728E-01 -7.160728188E-08
 7.431130409E-01 1.314801872E-01 -6.898807214E-08
 7.437422872E-01 1.350616366E-01 -6.651895745E-08
 7.444037199E-01 1.388261169E-01 -6.409489117E-08
 7.450989485E-01 1.427829713E-01 -6.162376565E-08
 7.458297014E-01 1.469420493E-01 -5.909607736E-08
 7.465977669E-01 1.513136774E-01 -5.650657187E-08
 7.474051118E-01 1.559087187E-01 -5.386302604E-08
 7.482537627E-01 1.607385874E-01 -5.116473645E-08
 7.491457462E-01 1.658152938E-01 -4.841223245E-08
 7.500832677E-01 1.711514294E-01 -4.563608158E-08
 7.510687709E-01 1.767602861E-01 -4.283378630E-08
 7.521045804E-01 1.826557815E-01 -3.998839659E-08
 7.531933784E-01 1.888525635E-01 -3.711300778E-08
 7.543377876E-01 1.953660399E-01 -3.422545092E-08
 7.555406690E-01 2.022123784E-01 -3.133383331E-08
 7.568050623E-01 2.094085962E-01 -2.844027591E-08
 7.581340671E-01 2.169725895E-01 -2.559273860E-08
 7.595309615E-01 2.249231488E-01 -2.275672806E-08
 7.609992623E-01 2.332800031E-01 -1.994268750E-08
 7.625426054E-01 2.420639545E-01 -1.716735731E-08
 7.641648054E-01 2.512967885E-01 -1.443680908E-08
 7.658699155E-01 2.610014975E-01 -1.175131104E-08
 7.676621675E-01 2.712021470E-01 -9.121333022E-09
 7.695460320E-01 2.819240987E-01 -6.601878599E-09
 7.715261579E-01 2.931939960E-01 -4.160121581E-09
 7.736074924E-01 3.050398827E-01 -1.797101801E-09
 7.757951617E-01 3.174911141E-01 4.828565880E-10
 7.780946493E-01 3.305786848E-01 2.662657872E-09
 7.805116773E-01 3.443350792E-01 4.752631622E-09
ZONE T="x=.7863"
 7.863000035E-01 5.103440955E-02 -2.157991345E-15
 7.863003612E-01 5.103637278E-02 -4.338875450E-14
 7.863007784E-01 5.103834346E-02 -1.096832586E-13
 7.863011360E-01 5.104032159E-02 -4.761873404E-13
 7.863014936E-01 5.104231462E-02 -9.620746040E-13
 7.863019109E-01 5.104433000E-02 -2.465122941E-12
 7.863022685E-01 5.104636773E-02 -4.421388169E-12
 7.863026857E-01 5.104843527E-02 -8.782938786E-12
 7.863031030E-01 5.105053633E-02 -1.470570540E-11
 7.863035202E-01 5.105267838E-02 -2.513421936E-11
 7.863039374E-01 5.105486885E-02 -4.008849155E-11
 7.863043547E-01 5.105710775E-02 -6.227240945E-11
 7.863047719E-01 5.105940253E-02 -9.615021973E-11
 7.863052487E-01 5.106176063E-02 -1.401142119E-10
 7.863057256E-01 5.106418580E-02 -2.157145296E-10
 7.863062024E-01 5.106668547E-02 -3.043126862E-10
 7.863066792E-01 5.106926337E-02 -4.455837088E-10
 7.863072157E-01 5.107193068E-02 -6.294111898E-10
 7.863077521E-01 5.107469112E-02 -8.750358216E-10
 7.863082886E-01 5.107754841E-02 -1.258554261E-09
 7.863088250E-01 5.108051747E-02 -1.722316845E-09
 7.863094211E-01 5.108359829E-02 -2.391332243E-09
 7.863100171E-01 5.108680204E-02 -3.331303011E-09
 7.863106728E-01 5.109013617E-02 -4.536712339E-09
 7.863113284E-01 5.109360814E-02 -6.253844109E-09
 7.863120437E-01 5.109722912E-02 -8.656314776E-09
 7.863127589E-01 5.110100657E-02 -1.174423314E-08
 7.863135338E-01 5.110494792E-02 -1.599772226E-08
 7.863143086E-01 5.110906437E-02 -2.220696338E-08
 7.863151431E-01 5.111336708E-02 -3.016259598E-08
 7.863159776E-01 5.111786351E-02 -4.080000693E-08
 7.863169312E-01 5.112257227E-02 -5.622115040E-08
 7.863178253E-01 5.112749711E-02 -7.745018138E-08
 7.863188386E-01 5.113265291E-02 -1.052233642E-07
 7.863198519E-01 5.113805458E-02 -1.426023886E-07
 7.863209844E-01 5.114371330E-02 -1.962404355E-07
 7.863221169E-01 5.114964396E-02 -2.709546436E-07
 7.863233089E-01 5.115586147E-02 -3.692690598E-07
 7.863245606E-01 5.116238073E-02 -5.034295896E-07
 7.863258719E-01 5.116921663E-02 -6.843909546E-07
 7.863272429E-01 5.117639154E-02 -9.475043043E-07
 7.863286734E-01 5.118391663E-02 -1.304788270E-06
 7.863301635E-01 5.119181424E-02 -1.778645242E-06
 7.863317728E-01 5.120010301E-02 -2.425386128E-06
 7.863334417E-01 5.120880157E-02 -3.291804433E-06
 7.863351703E-01 5.121793598E-02 -4.539304882E-06
 7.863370180E-01 5.122752488E-02 -6.227593985E-06
 7.863389850E-01 5.123759806E-02 -8.453418559E-06
 7.863410115E-01 5.124817044E-02 -1.144367343E-05
 7.863430977E-01 5.125927925E-02 -1.537757271E-05
 7.863453627E-01 5.127094314E-02 -2.064760702E-05
 7.863476872E-01 5.128319934E-02 -2.768479499E-05
 7.863501906E-01 5.129607022E-02 -3.667589408E-05
 7.863527536E-01 5.130959302E-02 -4.778836592E-05
 7.863554955E-01 5.132380128E-02 -6.157311873E-05
 7.863583565E-01 5.133872852E-02 -7.812741387E-05
 7.863613367E-01 5.135441199E-02 -9.771686018E-05
 7.863644958E-01 5.137088895E-02 -1.202271669E-04
 7.863678336E-01 5.138820410E-02 -1.450418204E-04
 7.863713503E-01 5.140640214E-02 -1.716332627E-04
 7.863749862E-01 5.142552033E-02 -1.996922656E-04
 7.863788605E-01 5.144561455E-02 -2.286630479E-04
 7.863829136E-01 5.146672577E-02 -2.580250148E-04
 7.863871455E-01 5.148891732E-02 -2.870497119E-04
 7.863916159E-01 5.151223764E-02 -3.158041800E-04
 7.863963246E-01 5.153674260E-02 -3.442205198E-04
 7.864012718E-01 5.156249925E-02 -3.723007394E-04
 7.864064574E-01 5.158956721E-02 -4.001526977E-04
 7.864118814E-01 5.161801726E-02 -4.278474953E-04
 7.864176631E-01 5.164791644E-02 -4.554409243E-04
 7.864236832E-01 5.167934299E-02 -4.830575199E-04
 7.864300013E-01 5.171237141E-02 -5.110207712E-04
 7.864366770E-01 5.174708739E-02 -5.394612090E-04
 7.864436507E-01 5.178357288E-02 -5.685167271E-04
 7.864509821E-01 5.182192102E-02 -5.983251613E-04
 7.864587307E-01 5.186222866E-02 -6.290027522E-04
 7.864668369E-01 5.190459266E-02 -6.605691742E-04
 7.864754200E-01 5.194912106E-02 -6.932044635E-04
 7.864843607E-01 5.199592188E-02 -7.270139758E-04
 7.864938378E-01 5.204511434E-02 -7.620783872E-04
 7.865037322E-01 5.209682137E-02 -7.985142875E-04
 7.865141630E-01 5.215116590E-02 -8.363899542E-04
 7.865250707E-01 5.220828950E-02 -8.757770993E-04
 7.865366340E-01 5.226833373E-02 -9.167074459E-04
 7.865487337E-01 5.233144015E-02 -9.592808783E-04
 7.865614295E-01 5.239777640E-02 -1.003603917E-03
 7.865747809E-01 5.246749893E-02 -1.049730461E-03
 7.865888476E-01 5.254078656E-02 -1.097776345E-03
 7.866036296E-01 5.261781812E-02 -1.147792791E-03
 7.866191268E-01 5.269878358E-02 -1.199852559E-03
 7.866354585E-01 5.278389156E-02 -1.253939234E-03
 7.866526246E-01 5.287334695E-02 -1.310198335E-03
 7.866706848E-01 5.296737328E-02 -1.368718804E-03
 7.866896391E-01 5.306620896E-02 -1.429564785E-03
 7.867095470E-01 5.317009240E-02 -1.492814743E-03
 7.867304683E-01 5.327928439E-02 -1.558538759E-03
 7.867524624E-01 5.339406058E-02 -1.626806334E-03
 7.867755890E-01 5.351470038E-02 -1.697499654E-03
 7.867999077E-01 5.364150926E-02 -1.770845731E-03
 7.868254781E-01 5.377480015E-02 -1.846904284E-03
 7.868523598E-01 5.391490087E-02 -1.925742952E-03
 7.868806124E-01 5.406216532E-02 -2.007402014E-03
 7.869102955E-01 5.421695858E-02 -2.091945615E-03
 7.869414687E-01 5.437966064E-02 -2.179394243E-03
 7.869742513E-01 5.455068126E-02 -2.269540215E-03
 7.870087624E-01 5.473044515E-02 -2.362672240E-03
 7.870449424E-01 5.491939560E-02 -2.458817093E-03
 7.870830297E-01 5.511800572E-02 -2.558032982E-03
 7.871230841E-01 5.532677099E-02 -2.660320140E-03
 7.871651649E-01 5.554620549E-02 -2.765705343E-03
 7.872093916E-01 5.577685311E-02 -2.874130849E-03
 7.872558832E-01 5.601929501E-02 -2.985216910E-03
 7.873047590E-01 5.627413094E-02 -3.099323250E-03
 7.873561382E-01 5.654199421E-02 -3.216406796E-03
 7.874100804E-01 5.682354793E-02 -3.336389083E-03
 7.874668837E-01 5.711949244E-02 -3.459251951E-03
 7.875264883E-01 5.743056908E-02 -3.584873630E-03
 7.875891924E-01 5.775754526E-02 -3.712966107E-03
 7.876551151E-01 5.810124055E-02 -3.842793172E-03
 7.877243757E-01 5.846250057E-02 -3.974737134E-03
 7.877972126E-01 5.884223059E-02 -4.108437803E-03
 7.878737450E-01 5.924136937E-02 -4.243645351E-03
 7.879542112E-01 5.966091156E-02 -4.380050581E-03
 7.880387306E-01 6.010190398E-02 -4.517293070E-03
 7.881276608E-01 6.056543812E-02 -4.654443357E-03
 7.882210612E-01 6.105266884E-02 -4.789961968E-03
 7.883192897E-01 6.156480312E-02 -4.923990928E-03
 7.884225249E-01 6.210312247E-02 -5.055689253E-03
 7.885310054E-01 6.266895682E-02 -5.184189882E-03
 7.886450291E-01 6.326371431E-02 -5.308394786E-03
 7.887649536E-01 6.388888508E-02 -5.427235272E-03
 7.888909578E-01 6.454600394E-02 -5.538512021E-03
 7.890233994E-01 6.523671746E-02 -5.638460629E-03
 7.891626358E-01 6.596274674E-02 -5.726813339E-03
 7.893089652E-01 6.672587991E-02 -5.801612977E-03
 7.894627452E-01 6.752803177E-02 -5.860328674E-03
 7.896244526E-01 6.837118417E-02 -5.900115240E-03
 7.897943854E-01 6.925744563E-02 -5.917728413E-03
 7.899730206E-01 7.018900663E-02 -5.906918552E-03
 7.901607752E-01 7.116819173E-02 -5.861449987E-03
 7.903581262E-01 7.219742984E-02 -5.780212115E-03
 7.905656099E-01 7.327928394E-02 -5.658299662E-03
 7.907836437E-01 7.441644371E-02 -5.490500480E-03
 7.910128832E-01 7.561173290E-02 -5.271372385E-03
 7.912538052E-01 7.686812431E-02 -4.993257113E-03
 7.915070057E-01 7.818873972E-02 -4.648911767E-03
 7.917732000E-01 7.957687229E-02 -4.231148399E-03
 7.920529842E-01 8.103596419E-02 -3.744931659E-03
 7.923470736E-01 8.256964386E-02 -3.193259472E-03
 7.926562428E-01 8.418171853E-02 -2.585481619E-03
 7.929811478E-01 8.587621152E-02 -1.946195727E-03
 7.933226824E-01 8.765732497E-02 -1.316210139E-03
 7.936816812E-01 8.952948451E-02 -7.718191482E-04
 7.940590382E-01 9.149735421E-02 -3.932606778E-04
 7.944557071E-01 9.356581420E-02 -1.701270376E-04
 7.948725820E-01 9.574002028E-02 -6.002517330E-05
 7.953108549E-01 9.802536666E-02 -1.754936602E-05
 7.957714796E-01 1.004275456E-01 -5.912025699E-06
 7.962556481E-01 1.029525176E-01 -2.986303343E-06
 7.967645526E-01 1.056065708E-01 -1.445164912E-06
 7.972995043E-01 1.083962992E-01 -6.826042522E-07
 7.978618145E-01 1.113286316E-01 -3.277730229E-07
 7.984528542E-01 1.144108698E-01 -1.868258011E-07
 7.990741134E-01 1.176506728E-01 -1.339875553E-07
 7.997271419E-01 1.210560948E-01 -1.114254005E-07
 8.004134893E-01 1.246355996E-01 -1.007508388E-07
 8.011350036E-01 1.283980906E-01 -9.494964814E-08
 8.018933535E-01 1.323529184E-01 -9.079022334E-08
 8.026905060E-01 1.365099102E-01 -8.709582033E-08
 8.035283685E-01 1.408794224E-01 -8.361011083E-08
 8.044090867E-01 1.454722881E-01 -8.019943465E-08
 8.053348064E-01 1.502999514E-01 -7.680628755E-08
 8.063079119E-01 1.553743929E-01 -7.341153463E-08
 8.073306680E-01 1.607082486E-01 -7.002498137E-08
 8.084057570E-01 1.663147658E-01 -6.663268692E-08
 8.095358014E-01 1.722078919E-01 -6.324693658E-08
 8.107236624E-01 1.784022748E-01 -5.987394758E-08
 8.119722009E-01 1.849133074E-01 -5.651966717E-08
 8.132845163E-01 1.917572021E-01 -5.318840834E-08
 8.146640062E-01 1.989509314E-01 -4.987578706E-08
 8.161139488E-01 2.065124214E-01 -4.662630815E-08
 8.176380396E-01 2.144604474E-01 -4.344309801E-08
 8.192400336E-01 2.228147835E-01 -4.030457745E-08
 8.209239244E-01 2.315961719E-01 -3.721430275E-08
 8.226938844E-01 2.408264875E-01 -3.418388062E-08
 8.245543242E-01 2.505286336E-01 -3.121789405E-08
 8.265098929E-01 2.607267797E-01 -2.830557300E-08
 8.285654187E-01 2.714462280E-01 -2.548805611E-08
 8.307260275E-01 2.827136815E-01 -2.275395872E-08
 8.329970837E-01 2.945571244E-01 -2.008649069E-08
 8.353842497E-01 3.070059717E-01 -1.749446277E-08
 8.378934264E-01 3.200912178E-01 -1.497160973E-08
 8.405308723E-01 3.338454068E-01 -1.252872117E-08
ZONE T="x=.8418"
 8.417999744E-01 3.950987384E-02 0.000000000E+00
 8.418003917E-01 3.951183334E-02 1.259173701E-13
 8.418008089E-01 3.951379657E-02 3.559438443E-13
 8.418012261E-01 3.951577097E-02 1.371572777E-12
 8.418016434E-01 3.951775655E-02 2.938396922E-12
 8.418020606E-01 3.951976448E-02 6.899191288E-12
 8.418024778E-01 3.952179849E-02 1.206338415E-11
 8.418028951E-01 3.952385858E-02 2.265256559E-11
 8.418033123E-01 3.952595592E-02 3.504002297E-11
 8.418037295E-01 3.952809423E-02 5.808434289E-11
 8.418042064E-01 3.953027725E-02 8.403227419E-11
 8.418046832E-01 3.953250870E-02 1.274698125E-10
 8.418051600E-01 3.953479603E-02 1.794353555E-10
 8.418056369E-01 3.953715041E-02 2.508954711E-10