# NACA 4412, alpha=13.87, Re=1.52 million, 897x257 grid, CFL3D with SA model
#    x = x/c
#    y = y/c
#    u = (u/Uinf)/0.93 
#    v = (v/Uinf)/0.93 
#    (0.93 needed to put normalization in terms of experimental ref location below and behind airfoil)
VARIABLES = "x","y","u","v"
ZONE T="x=.6753"
 6.753000021E-01 7.061254978E-02 2.055161400E-03 -3.195479221E-04
 6.753003001E-01 7.061452419E-02 3.877276089E-03 -6.021498120E-04
 6.753006577E-01 7.061649859E-02 5.694410764E-03 -8.849718142E-04
 6.753009558E-01 7.061848789E-02 7.549980655E-03 -1.172565506E-03
 6.753013134E-01 7.062049210E-02 9.398180991E-03 -1.460292377E-03
 6.753016114E-01 7.062251866E-02 1.130526885E-02 -1.755643170E-03
 6.753019691E-01 7.062456012E-02 1.320601255E-02 -2.051657764E-03
 6.753023267E-01 7.062663883E-02 1.519586705E-02 -2.359522972E-03
 6.753026843E-01 7.062875479E-02 1.717087813E-02 -2.667313209E-03
 6.753030419E-01 7.063090801E-02 1.925722510E-02 -2.989686560E-03
 6.753033996E-01 7.063310593E-02 2.132353932E-02 -3.311683424E-03
 6.753037572E-01 7.063535601E-02 2.351100184E-02 -3.649999853E-03
 6.753041148E-01 7.063765824E-02 2.570368536E-02 -3.990965895E-03
 6.753045321E-01 7.064002752E-02 2.801882103E-02 -4.349649884E-03
 6.753048897E-01 7.064246386E-02 3.038337454E-02 -4.716385156E-03
 6.753053069E-01 7.064497471E-02 3.283577785E-02 -5.097184330E-03
 6.753057241E-01 7.064756751E-02 3.541290015E-02 -5.495664664E-03
 6.753062010E-01 7.065024227E-02 3.802571818E-02 -5.902057048E-03
 6.753066182E-01 7.065301389E-02 4.080183804E-02 -6.331386976E-03
 6.753070951E-01 7.065588981E-02 4.366992041E-02 -6.776055321E-03
 6.753076315E-01 7.065887004E-02 4.665757343E-02 -7.239742670E-03
 6.753081083E-01 7.066196203E-02 4.981493205E-02 -7.727477234E-03
 6.753086448E-01 7.066518068E-02 5.306605250E-02 -8.232004009E-03
 6.753091812E-01 7.066853344E-02 5.648797750E-02 -8.762251586E-03
 6.753097773E-01 7.067202032E-02 6.011452153E-02 -9.322374128E-03
 6.753103733E-01 7.067565620E-02 6.385587156E-02 -9.902628139E-03
 6.753109694E-01 7.067944854E-02 6.779123843E-02 -1.051231101E-02
 6.753116250E-01 7.068340480E-02 7.197237015E-02 -1.115791686E-02
 6.753123403E-01 7.068753988E-02 7.632680237E-02 -1.183198672E-02
 6.753129959E-01 7.069186121E-02 8.087197691E-02 -1.253640279E-02
 6.753137708E-01 7.069637626E-02 8.572165668E-02 -1.328536961E-02
 6.753145456E-01 7.070109993E-02 9.082055837E-02 -1.407236420E-02
 6.753153801E-01 7.070604712E-02 9.612641484E-02 -1.489389595E-02
 6.753162146E-01 7.071122527E-02 1.017149314E-01 -1.575882919E-02
 6.753171086E-01 7.071664929E-02 1.076551899E-01 -1.667511091E-02
 6.753180027E-01 7.072233409E-02 1.138894409E-01 -1.763647608E-02
 6.753190160E-01 7.072828710E-02 1.203824133E-01 -1.864042133E-02
 6.753200293E-01 7.073453069E-02 1.271809936E-01 -1.969132572E-02
 6.753211021E-01 7.074107230E-02 1.343411952E-01 -2.079558186E-02
 6.753222346E-01 7.074794173E-02 1.418502480E-01 -2.195238136E-02
 6.753234267E-01 7.075513899E-02 1.496480852E-01 -2.315449901E-02
 6.753246784E-01 7.076269388E-02 1.577261984E-01 -2.440125495E-02
 6.753259301E-01 7.077062130E-02 1.660430878E-01 -2.568425797E-02
 6.753273010E-01 7.077894360E-02 1.746630073E-01 -2.701062150E-02
 6.753287315E-01 7.078767568E-02 1.834919751E-01 -2.836808749E-02
 6.753302813E-01 7.079684734E-02 1.924875230E-01 -2.975131944E-02
 6.753318310E-01 7.080647349E-02 2.015652359E-01 -3.114852123E-02
 6.753334999E-01 7.081657648E-02 2.105953991E-01 -3.253719956E-02
 6.753352284E-01 7.082719356E-02 2.195792347E-01 -3.391608223E-02
 6.753370762E-01 7.083833963E-02 2.284602821E-01 -3.527642041E-02
 6.753389835E-01 7.085005194E-02 2.371621579E-01 -3.660792112E-02
 6.753410101E-01 7.086235285E-02 2.456242889E-01 -3.790270910E-02
 6.753431559E-01 7.087527215E-02 2.537840009E-01 -3.915010020E-02
 6.753453612E-01 7.088883966E-02 2.614563107E-01 -4.032046720E-02
 6.753476858E-01 7.090310007E-02 2.687946260E-01 -4.143615067E-02
 6.753501892E-01 7.091808319E-02 2.757886052E-01 -4.249630123E-02
 6.753527522E-01 7.093381882E-02 2.824301422E-01 -4.350046068E-02
 6.753554940E-01 7.095035911E-02 2.887450755E-01 -4.445340857E-02
 6.753582954E-01 7.096773386E-02 2.947424054E-01 -4.535612836E-02
 6.753613353E-01 7.098598778E-02 3.003441393E-01 -4.619567469E-02
 6.753644943E-01 7.100518048E-02 3.057054877E-01 -4.699545354E-02
 6.753677726E-01 7.102534175E-02 3.108584285E-01 -4.776016250E-02
 6.753712296E-01 7.104652375E-02 3.158307672E-01 -4.849493131E-02
 6.753749251E-01 7.106878608E-02 3.206504881E-01 -4.920413345E-02
 6.753787398E-01 7.109218836E-02 3.253353536E-01 -4.989115894E-02
 6.753827929E-01 7.111677527E-02 3.298802078E-01 -5.055404827E-02
 6.753870249E-01 7.114262134E-02 3.343148530E-01 -5.119726434E-02
 6.753914952E-01 7.116977870E-02 3.386988342E-01 -5.182896554E-02
 6.753962040E-01 7.119832188E-02 3.430429995E-01 -5.245159566E-02
 6.754010916E-01 7.122831792E-02 3.473579586E-01 -5.306676030E-02
 6.754062772E-01 7.125984132E-02 3.516545296E-01 -5.367647856E-02
 6.754117012E-01 7.129298151E-02 3.559438288E-01 -5.428222194E-02
 6.754174232E-01 7.132780552E-02 3.602041900E-01 -5.487991124E-02
 6.754234433E-01 7.136441022E-02 3.644785285E-01 -5.547579005E-02
 6.754297614E-01 7.140287757E-02 3.687837422E-01 -5.607178807E-02
 6.754364371E-01 7.144331187E-02 3.731223345E-01 -5.666882172E-02
 6.754434109E-01 7.148580253E-02 3.774980903E-01 -5.726727098E-02
 6.754507422E-01 7.153046876E-02 3.819134235E-01 -5.786795542E-02
 6.754584312E-01 7.157741487E-02 3.863732517E-01 -5.847091600E-02
 6.754665375E-01 7.162676007E-02 3.908559680E-01 -5.907216296E-02
 6.754750609E-01 7.167862356E-02 3.954029083E-01 -5.967741460E-02
 6.754840016E-01 7.173313200E-02 4.000172317E-01 -6.028686464E-02
 6.754934192E-01 7.179042697E-02 4.047002494E-01 -6.090087816E-02
 6.755033135E-01 7.185064256E-02 4.094553292E-01 -6.151966006E-02
 6.755136847E-01 7.191393524E-02 4.142808020E-01 -6.214343384E-02
 6.755245924E-01 7.198046148E-02 4.191781878E-01 -6.277129054E-02
 6.755360961E-01 7.205038518E-02 4.241363406E-01 -6.340088695E-02
 6.755481362E-01 7.212388515E-02 4.291901886E-01 -6.403657794E-02
 6.755608320E-01 7.220113277E-02 4.343409538E-01 -6.467851996E-02
 6.755741835E-01 7.228232920E-02 4.395916760E-01 -6.532701850E-02
 6.755881906E-01 7.236767560E-02 4.449473321E-01 -6.598234177E-02
 6.756029129E-01 7.245738059E-02 4.504062533E-01 -6.664466113E-02
 6.756184101E-01 7.255166769E-02 4.559702277E-01 -6.731271744E-02
 6.756346822E-01 7.265076786E-02 4.616361558E-01 -6.798529625E-02
 6.756517887E-01 7.275493443E-02 4.674401581E-01 -6.866648793E-02
 6.756697297E-01 7.286442071E-02 4.733831584E-01 -6.935658306E-02
 6.756886840E-01 7.297950238E-02 4.794730246E-01 -7.005620748E-02
 6.757085323E-01 7.310046256E-02 4.857172668E-01 -7.076579332E-02
 6.757293940E-01 7.322760671E-02 4.921181798E-01 -7.148589194E-02
 6.757513285E-01 7.336124033E-02 4.986787140E-01 -7.221505046E-02
 6.757743955E-01 7.350170612E-02 5.054087043E-01 -7.295361161E-02
 6.757986546E-01 7.364934683E-02 5.123453736E-01 -7.370541990E-02
 6.758241057E-01 7.380452752E-02 5.194910765E-01 -7.447098196E-02
 6.758509278E-01 7.396764308E-02 5.268598795E-01 -7.525132596E-02
 6.758790612E-01 7.413908839E-02 5.344646573E-01 -7.604729384E-02
 6.759086251E-01 7.431929559E-02 5.423110723E-01 -7.685964555E-02
 6.759397388E-01 7.450871170E-02 5.504084229E-01 -7.768724114E-02
 6.759724617E-01 7.470779866E-02 5.587786436E-01 -7.853143662E-02
 6.760067940E-01 7.491706312E-02 5.674570203E-01 -7.939575613E-02
 6.760429144E-01 7.513701916E-02 5.764538050E-01 -8.028116822E-02
 6.760808825E-01 7.536821812E-02 5.857877135E-01 -8.118883520E-02
 6.761207581E-01 7.561122626E-02 5.954779387E-01 -8.211990446E-02
 6.761627197E-01 7.586664706E-02 6.055357456E-01 -8.307533711E-02
 6.762068272E-01 7.613512129E-02 6.159757376E-01 -8.405398577E-02
 6.762531400E-01 7.641731948E-02 6.268358827E-01 -8.505810052E-02
 6.763018370E-01 7.671392709E-02 6.381489635E-01 -8.609081805E-02
 6.763530374E-01 7.702569664E-02 6.499336362E-01 -8.715327084E-02
 6.764068604E-01 7.735339552E-02 6.622154117E-01 -8.824669570E-02
 6.764634252E-01 7.769784331E-02 6.750211716E-01 -8.937233686E-02
 6.765228510E-01 7.805988193E-02 6.883707047E-01 -9.053123742E-02
 6.765853167E-01 7.844042033E-02 7.022811770E-01 -9.172160923E-02
 6.766510010E-01 7.884040475E-02 7.168113589E-01 -9.294606000E-02
 6.767200232E-01 7.926083356E-02 7.319871187E-01 -9.420713037E-02
 6.767926216E-01 7.970273495E-02 7.478365898E-01 -9.550555795E-02
 6.768688560E-01 8.016721904E-02 7.643917203E-01 -9.684205800E-02
 6.769490242E-01 8.065544069E-02 7.816852331E-01 -9.821719676E-02
 6.770333052E-01 8.116860688E-02 7.997464538E-01 -9.963125736E-02
 6.771218777E-01 8.170799166E-02 8.185831308E-01 -1.010795310E-01
 6.772149801E-01 8.227493614E-02 8.382542729E-01 -1.025628895E-01
 6.773127913E-01 8.287085593E-02 8.587782979E-01 -1.040822491E-01
 6.774156690E-01 8.349721879E-02 8.801777959E-01 -1.056357548E-01
 6.775237918E-01 8.415558934E-02 9.024706483E-01 -1.072208211E-01
 6.776373982E-01 8.484759927E-02 9.256691337E-01 -1.088335440E-01
 6.777568460E-01 8.557496965E-02 9.497807026E-01 -1.104676574E-01
 6.778823733E-01 8.633950353E-02 9.747370481E-01 -1.121071726E-01
 6.780143380E-01 8.714310825E-02 1.000501633E+00 -1.137470976E-01
 6.781530380E-01 8.798776567E-02 1.027033210E+00 -1.153795123E-01
 6.782987714E-01 8.887559175E-02 1.054236889E+00 -1.169900298E-01
 6.784520149E-01 8.980877697E-02 1.081976652E+00 -1.185606197E-01
 6.786130667E-01 9.078964591E-02 1.110064745E+00 -1.200689375E-01
 6.787824035E-01 9.182063490E-02 1.138211966E+00 -1.214820817E-01
 6.789603233E-01 9.290430695E-02 1.165697336E+00 -1.227266714E-01
 6.791473627E-01 9.404335171E-02 1.192037582E+00 -1.237684563E-01
 6.793439388E-01 9.524059296E-02 1.216579318E+00 -1.245553493E-01
 6.795505881E-01 9.649901092E-02 1.238398433E+00 -1.250141561E-01
 6.797677875E-01 9.782173485E-02 1.256536722E+00 -1.250757873E-01
 6.799960732E-01 9.921204299E-02 1.270007610E+00 -1.246750951E-01
 6.802359819E-01 1.006733850E-01 1.278468966E+00 -1.238067076E-01
 6.804882288E-01 1.022094041E-01 1.282033086E+00 -1.225042343E-01
 6.807532907E-01 1.038239077E-01 1.283030748E+00 -1.209514737E-01
 6.810319424E-01 1.055209115E-01 1.282942414E+00 -1.192517653E-01
 6.813248396E-01 1.073046178E-01 1.282541633E+00 -1.174557135E-01
 6.816326976E-01 1.091794744E-01 1.282240629E+00 -1.155849546E-01
 6.819562912E-01 1.111501232E-01 1.282114387E+00 -1.136425063E-01
 6.822963953E-01 1.132214740E-01 1.282071829E+00 -1.116209105E-01
 6.826539040E-01 1.153986603E-01 1.282020807E+00 -1.095153615E-01
 6.830296516E-01 1.176870912E-01 1.281943083E+00 -1.073205248E-01
 6.834245920E-01 1.200924516E-01 1.281845212E+00 -1.050321385E-01
 6.838397384E-01 1.226207241E-01 1.281731367E+00 -1.026464179E-01
 6.842761040E-01 1.252781898E-01 1.281608105E+00 -1.001621187E-01
 6.847347617E-01 1.280714273E-01 1.281476259E+00 -9.757677466E-02
 6.852168441E-01 1.310074031E-01 1.281334877E+00 -9.488787502E-02
 6.857236028E-01 1.340934038E-01 1.281174898E+00 -9.209544957E-02
 6.862561703E-01 1.373370737E-01 1.280990958E+00 -8.919128776E-02
 6.868160367E-01 1.407464892E-01 1.280791044E+00 -8.616703749E-02
 6.874044538E-01 1.443301290E-01 1.280572891E+00 -8.302295208E-02
 6.880229712E-01 1.480968595E-01 1.280333519E+00 -7.976059616E-02
 6.886730790E-01 1.520560831E-01 1.280066133E+00 -7.637504488E-02
 6.893563867E-01 1.562175900E-01 1.279766798E+00 -7.286295295E-02
 6.900746226E-01 1.605917513E-01 1.279433727E+00 -6.923290342E-02
 6.908295751E-01 1.651894003E-01 1.279067993E+00 -6.547722220E-02
 6.916230917E-01 1.700219959E-01 1.278667331E+00 -6.159230694E-02
 6.924571395E-01 1.751015037E-01 1.278216481E+00 -5.757072568E-02
 6.933338046E-01 1.804405749E-01 1.277724504E+00 -5.341639370E-02
 6.942552924E-01 1.860524565E-01 1.277188420E+00 -4.912788048E-02
 6.952238083E-01 1.919510812E-01 1.276605368E+00 -4.470296204E-02
 6.962418556E-01 1.981510967E-01 1.275950313E+00 -4.013487324E-02
 6.973119378E-01 2.046679258E-01 1.275237441E+00 -3.543442488E-02
 6.984366775E-01 2.115177512E-01 1.274462938E+00 -3.059941716E-02
 6.996188760E-01 2.187175751E-01 1.273617029E+00 -2.562763914E-02
 7.008615136E-01 2.262852788E-01 1.272687554E+00 -2.051649615E-02
 7.021676302E-01 2.342396826E-01 1.271682858E+00 -1.527262386E-02
 7.035405040E-01 2.426005304E-01 1.270599008E+00 -9.897452779E-03
 7.049834728E-01 2.513885796E-01 1.269402862E+00 -4.395565949E-03
 7.065002322E-01 2.606256902E-01 1.268113971E+00 1.228710869E-03
 7.080944777E-01 2.703347802E-01 1.266730905E+00 6.971372757E-03
 7.097701430E-01 2.805399597E-01 1.265229344E+00 1.283563673E-02
 7.115314603E-01 2.912665904E-01 1.263620615E+00 1.881091483E-02
 7.133827806E-01 3.025413454E-01 1.261907578E+00 2.490236424E-02
 7.153286934E-01 3.143922091E-01 1.260057688E+00 3.110618144E-02
 7.173740864E-01 3.268485963E-01 1.258076310E+00 3.736085072E-02
 7.195239067E-01 3.399414718E-01 1.255965114E+00 4.369297996E-02
 7.217836380E-01 3.537033498E-01 1.253717899E+00 5.010820925E-02
ZONE T="x=.7308"
 7.307999730E-01 6.140028313E-02 6.508523948E-04 -1.145524366E-04
 7.308003306E-01 6.140225381E-02 1.446120907E-03 -2.548194898E-04
 7.308006883E-01 6.140422821E-02 2.270576078E-03 -3.998979519E-04
 7.308010459E-01 6.140621379E-02 3.088965081E-03 -5.441304529E-04
 7.308014035E-01 6.140821055E-02 3.932722379E-03 -6.926000351E-04
 7.308017612E-01 6.141022965E-02 4.780756310E-03 -8.419270162E-04
 7.308021188E-01 6.141227484E-02 5.656776484E-03 -9.960859315E-04
 7.308024764E-01 6.141434982E-02 6.549824029E-03 -1.153170597E-03
 7.308028340E-01 6.141645461E-02 7.457661442E-03 -1.312977518E-03
 7.308031917E-01 6.141860411E-02 8.404050022E-03 -1.479237573E-03
 7.308036089E-01 6.142079830E-02 9.360593744E-03 -1.647712663E-03
 7.308040261E-01 6.142304465E-02 1.038151979E-02 -1.826799824E-03
 7.308043838E-01 6.142534688E-02 1.139671262E-02 -2.005516784E-03
 7.308048010E-01 6.142770872E-02 1.248921547E-02 -2.197061898E-03
 7.308052182E-01 6.143014133E-02 1.358384266E-02 -2.389657078E-03
 7.308056951E-01 6.143264845E-02 1.475156471E-02 -2.594650025E-03
 7.308061123E-01 6.143523380E-02 1.595578529E-02 -2.806023695E-03
 7.308065891E-01 6.143790856E-02 1.720352843E-02 -3.025343874E-03
 7.308071256E-01 6.144067645E-02 1.854996197E-02 -3.261133330E-03
 7.308076024E-01 6.144354120E-02 1.990795881E-02 -3.499706043E-03
 7.308081388E-01 6.144651771E-02 2.135560475E-02 -3.753683064E-03
 7.308086753E-01 6.144960597E-02 2.288690768E-02 -4.021888133E-03
 7.308092117E-01 6.145282090E-02 2.446709014E-02 -4.299222026E-03
 7.308098078E-01 6.145616248E-02 2.615196258E-02 -4.594450351E-03
 7.308104038E-01 6.145964563E-02 2.793205157E-02 -4.906071816E-03
 7.308110595E-01 6.146327406E-02 2.978448756E-02 -5.230871029E-03
 7.308117151E-01 6.146705896E-02 3.175479546E-02 -5.575972609E-03
 7.308124304E-01 6.147101149E-02 3.386559710E-02 -5.944963545E-03
 7.308131456E-01 6.147513911E-02 3.605123609E-02 -6.327807438E-03
 7.308139205E-01 6.147945300E-02 3.837997839E-02 -6.735545583E-03
 7.308146954E-01 6.148396060E-02 4.087404162E-02 -7.171310950E-03
 7.308155298E-01 6.148868054E-02 4.350501299E-02 -7.631161250E-03
 7.308164239E-01 6.149361655E-02 4.627458006E-02 -8.115598001E-03
 7.308173180E-01 6.149878725E-02 4.922350869E-02 -8.631194010E-03
 7.308182716E-01 6.150420010E-02 5.239295959E-02 -9.184224531E-03
 7.308192253E-01 6.150987372E-02 5.573928729E-02 -9.768245742E-03
 7.308202982E-01 6.151581928E-02 5.926953629E-02 -1.038481481E-02
 7.308213711E-01 6.152205169E-02 6.303081661E-02 -1.104143076E-02
 7.308225632E-01 6.152858585E-02 6.705367565E-02 -1.174294669E-02
 7.308237553E-01 6.153543666E-02 7.134630531E-02 -1.249044202E-02
 7.308250070E-01 6.154262647E-02 7.585945725E-02 -1.327715907E-02
 7.308263183E-01 6.155017018E-02 8.064136654E-02 -1.411057822E-02
 7.308277488E-01 6.155808643E-02 8.571945876E-02 -1.499514654E-02
 7.308291793E-01 6.156639382E-02 9.110064059E-02 -1.593145914E-02
 7.308307290E-01 6.157511100E-02 9.680046886E-02 -1.692187414E-02
 7.308323383E-01 6.158426777E-02 1.027568206E-01 -1.795734838E-02
 7.308340073E-01 6.159387901E-02 1.089788824E-01 -1.903889328E-02
 7.308357954E-01 6.160397083E-02 1.154608130E-01 -2.016474865E-02
 7.308376431E-01 6.161456928E-02 1.221600771E-01 -2.132746577E-02
 7.308396101E-01 6.162570044E-02 1.290778518E-01 -2.252561599E-02
 7.308416367E-01 6.163739040E-02 1.361288577E-01 -2.374555171E-02
 7.308438420E-01 6.164967269E-02 1.432503313E-01 -2.497794665E-02
 7.308461070E-01 6.166257337E-02 1.503906101E-01 -2.621202916E-02
 7.308484912E-01 6.167612597E-02 1.573859006E-01 -2.741880156E-02
 7.308509946E-01 6.169036031E-02 1.642392576E-01 -2.859885059E-02
 7.308536172E-01 6.170532107E-02 1.709139943E-01 -2.974428982E-02
 7.308563590E-01 6.172103435E-02 1.773475856E-01 -3.084551916E-02
 7.308592796E-01 6.173754856E-02 1.835125834E-01 -3.189879283E-02
 7.308623195E-01 6.175490096E-02 1.893873960E-01 -3.289919719E-02
 7.308655381E-01 6.177313253E-02 1.948809177E-01 -3.383041918E-02
 7.308688760E-01 6.179229170E-02 2.000587434E-01 -3.470392898E-02
 7.308723927E-01 6.181242317E-02 2.049802393E-01 -3.552949056E-02
 7.308761477E-01 6.183357909E-02 2.096710205E-01 -3.631179407E-02
 7.308800220E-01 6.185581163E-02 2.141495794E-01 -3.705472872E-02
 7.308841348E-01 6.187917665E-02 2.184446752E-01 -3.776326776E-02
 7.308884263E-01 6.190373376E-02 2.225690335E-01 -3.843899444E-02
 7.308930159E-01 6.192953885E-02 2.265188843E-01 -3.908101097E-02
 7.308977842E-01 6.195665896E-02 2.303753793E-01 -3.970349580E-02
 7.309027910E-01 6.198516488E-02 2.341661006E-01 -4.031044990E-02
 7.309080362E-01 6.201511994E-02 2.379034907E-01 -4.090460762E-02
 7.309135795E-01 6.204660609E-02 2.416009754E-01 -4.148857296E-02
 7.309193611E-01 6.207969412E-02 2.452728152E-01 -4.206437245E-02
 7.309255004E-01 6.211447343E-02 2.489195764E-01 -4.263160005E-02
 7.309318781E-01 6.215102598E-02 2.525527477E-01 -4.319208115E-02
 7.309386730E-01 6.218944490E-02 2.562069893E-01 -4.375146329E-02
 7.309457660E-01 6.222982705E-02 2.598916888E-01 -4.431094602E-02
 7.309532166E-01 6.227226555E-02 2.636095583E-01 -4.487116262E-02
 7.309610248E-01 6.231687218E-02 2.673612237E-01 -4.543251172E-02
 7.309693098E-01 6.236375868E-02 2.711597681E-01 -4.599644244E-02
 7.309779525E-01 6.241303682E-02 2.749907374E-01 -4.655999318E-02
 7.309870124E-01 6.246483326E-02 2.788711786E-01 -4.712584615E-02
 7.309966087E-01 6.251927465E-02 2.828199863E-01 -4.769659787E-02
 7.310066819E-01 6.257649511E-02 2.868392169E-01 -4.827235639E-02
 7.310172319E-01 6.263663620E-02 2.909298539E-01 -4.885318875E-02
 7.310283184E-01 6.269985437E-02 2.950901985E-01 -4.943899065E-02
 7.310400009E-01 6.276629865E-02 2.993306220E-01 -5.003052950E-02
 7.310522795E-01 6.283613294E-02 3.036338985E-01 -5.062413961E-02
 7.310651541E-01 6.290954351E-02 3.080213070E-01 -5.122316256E-02
 7.310787439E-01 6.298670173E-02 3.125069439E-01 -5.182907358E-02
 7.310929894E-01 6.306780130E-02 3.170910478E-01 -5.244172364E-02
 7.311079502E-01 6.315304339E-02 3.217765689E-01 -5.306123197E-02
 7.311236858E-01 6.324263662E-02 3.265620768E-01 -5.368736014E-02
 7.311402559E-01 6.333681196E-02 3.314593136E-01 -5.432087556E-02
 7.311576605E-01 6.343580037E-02 3.364500105E-01 -5.495759845E-02
 7.311758995E-01 6.353984028E-02 3.415609002E-01 -5.560176447E-02
 7.311951518E-01 6.364920735E-02 3.468093276E-01 -5.625487864E-02
 7.312153578E-01 6.376415491E-02 3.521943390E-01 -5.691665784E-02
 7.312365770E-01 6.388497353E-02 3.577230871E-01 -5.758754164E-02
 7.312588692E-01 6.401196867E-02 3.633969724E-01 -5.826753378E-02
 7.312823534E-01 6.414546072E-02 3.692322671E-01 -5.895778164E-02
 7.313069701E-01 6.428576261E-02 3.752116561E-01 -5.965389684E-02
 7.313328981E-01 6.443323940E-02 3.813737035E-01 -6.036166474E-02
 7.313601375E-01 6.458825618E-02 3.877339065E-01 -6.108213961E-02
 7.313887477E-01 6.475118548E-02 3.942970634E-01 -6.181560084E-02
 7.314188480E-01 6.492244452E-02 4.010763168E-01 -6.256297231E-02
 7.314504981E-01 6.510245800E-02 4.080772996E-01 -6.332454830E-02
 7.314836979E-01 6.529167295E-02 4.153178930E-01 -6.410142034E-02
 7.315186858E-01 6.549055129E-02 4.227954745E-01 -6.489074975E-02
 7.315554023E-01 6.569959223E-02 4.305502176E-01 -6.569815427E-02
 7.315939665E-01 6.591931731E-02 4.386007190E-01 -6.652487069E-02
 7.316345572E-01 6.615027785E-02 4.469594955E-01 -6.737167388E-02
 7.316772342E-01 6.639303267E-02 4.556440413E-01 -6.823962927E-02
 7.317220569E-01 6.664819270E-02 4.646671712E-01 -6.912945956E-02
 7.317692041E-01 6.691639870E-02 4.740504026E-01 -7.004217803E-02
 7.318187356E-01 6.719830632E-02 4.838040471E-01 -7.097595185E-02
 7.318707705E-01 6.749462336E-02 4.939759970E-01 -7.193660736E-02
 7.319254875E-01 6.780607998E-02 5.045846105E-01 -7.292502373E-02
 7.319830060E-01 6.813345850E-02 5.156517625E-01 -7.394234091E-02
 7.320435047E-01 6.847756356E-02 5.272033215E-01 -7.498989999E-02
 7.321070433E-01 6.883925200E-02 5.392616987E-01 -7.606872916E-02
 7.321738005E-01 6.921942532E-02 5.518497229E-01 -7.717925310E-02
 7.322440147E-01 6.961902976E-02 5.649977326E-01 -7.832053304E-02
 7.323178053E-01 7.003905624E-02 5.787591338E-01 -7.949831337E-02
 7.323954105E-01 7.048054785E-02 5.931547880E-01 -8.071296662E-02
 7.324769497E-01 7.094459981E-02 6.082178354E-01 -8.196570724E-02
 7.325626612E-01 7.143236697E-02 6.239832044E-01 -8.325769752E-02
 7.326527238E-01 7.194506377E-02 6.404867768E-01 -8.459002525E-02
 7.327473760E-01 7.248395681E-02 6.577509046E-01 -8.596170694E-02
 7.328469157E-01 7.305039465E-02 6.758264303E-01 -8.737127483E-02
 7.329515219E-01 7.364577800E-02 6.947562099E-01 -8.882291615E-02
 7.330614924E-01 7.427158952E-02 7.145717144E-01 -9.031627327E-02
 7.331770658E-01 7.492938638E-02 7.353091240E-01 -9.185100347E-02
 7.332985401E-01 7.562079281E-02 7.570030093E-01 -9.342624992E-02
 7.334262133E-01 7.634753734E-02 7.796884775E-01 -9.503939003E-02
 7.335604429E-01 7.711142302E-02 8.033916354E-01 -9.668684751E-02
 7.337015271E-01 7.791434973E-02 8.280966878E-01 -9.835847467E-02
 7.338498235E-01 7.875830680E-02 8.538344502E-01 -1.000561938E-01
 7.340056896E-01 7.964538783E-02 8.806005716E-01 -1.017735377E-01
 7.341694832E-01 8.057781309E-02 9.083749056E-01 -1.035022810E-01
 7.343416810E-01 8.155788481E-02 9.371155500E-01 -1.052319631E-01
 7.345227003E-01 8.258804679E-02 9.667499065E-01 -1.069486290E-01
 7.347129583E-01 8.367084712E-02 9.971011877E-01 -1.086261198E-01
 7.349129319E-01 8.480899036E-02 1.027829766E+00 -1.102233678E-01
 7.351230979E-01 8.600530028E-02 1.058758020E+00 -1.117280349E-01
 7.353440523E-01 8.726274222E-02 1.089479804E+00 -1.131004691E-01
 7.355762720E-01 8.858445287E-02 1.119430542E+00 -1.142898649E-01
 7.358203530E-01 8.997370303E-02 1.147766590E+00 -1.152244583E-01
 7.360768914E-01 9.143395722E-02 1.173471689E+00 -1.158249229E-01
 7.363466024E-01 9.296883643E-02 1.195019960E+00 -1.159783527E-01
 7.366300821E-01 9.458214790E-02 1.210635662E+00 -1.155745387E-01
 7.369279861E-01 9.627791494E-02 1.220924377E+00 -1.146975756E-01
 7.372411489E-01 9.806034714E-02 1.226601601E+00 -1.134225056E-01
 7.375703454E-01 9.993386269E-02 1.228910327E+00 -1.118485406E-01
 7.379163504E-01 1.019031331E-01 1.229413867E+00 -1.100875810E-01
 7.382800579E-01 1.039730385E-01 1.229291558E+00 -1.082118154E-01
 7.386623025E-01 1.061487272E-01 1.229285836E+00 -1.062609777E-01
 7.390640974E-01 1.084356010E-01 1.229538560E+00 -1.042409316E-01
 7.394864559E-01 1.108393520E-01 1.229898334E+00 -1.021378711E-01
 7.399303913E-01 1.133659482E-01 1.230282545E+00 -9.994978458E-02
 7.403969765E-01 1.160216630E-01 1.230659008E+00 -9.767321497E-02
 7.408874035E-01 1.188130975E-01 1.231024504E+00 -9.530088305E-02
 7.414029241E-01 1.217471883E-01 1.231386185E+00 -9.283000231E-02
 7.419447899E-01 1.248312294E-01 1.231742144E+00 -9.025847912E-02
 7.425143719E-01 1.280728728E-01 1.232096076E+00 -8.758995682E-02
 7.431130409E-01 1.314801872E-01 1.232448339E+00 -8.481925726E-02
 7.437422872E-01 1.350616366E-01 1.232798457E+00 -8.194530755E-02
 7.444037199E-01 1.388261169E-01 1.233137012E+00 -7.895899564E-02
 7.450989485E-01 1.427829713E-01 1.233464479E+00 -7.585989684E-02
 7.458297014E-01 1.469420493E-01 1.233781219E+00 -7.264738530E-02
 7.465977669E-01 1.513136774E-01 1.234081149E+00 -6.932192296E-02
 7.474051118E-01 1.559087187E-01 1.234353781E+00 -6.587851793E-02
 7.482537627E-01 1.607385874E-01 1.234605789E+00 -6.230663136E-02
 7.491457462E-01 1.658152938E-01 1.234837532E+00 -5.860734731E-02
 7.500832677E-01 1.711514294E-01 1.235042810E+00 -5.478337407E-02
 7.510687709E-01 1.767602861E-01 1.235209107E+00 -5.082470179E-02
 7.521045804E-01 1.826557815E-01 1.235339761E+00 -4.673552886E-02
 7.531933784E-01 1.888525635E-01 1.235426426E+00 -4.252087697E-02
 7.543377876E-01 1.953660399E-01 1.235457420E+00 -3.817785159E-02
 7.555406690E-01 2.022123784E-01 1.235436559E+00 -3.369164467E-02
 7.568050623E-01 2.094085962E-01 1.235366464E+00 -2.906696312E-02
 7.581340671E-01 2.169725895E-01 1.235235453E+00 -2.430552430E-02
 7.595309615E-01 2.249231488E-01 1.235032797E+00 -1.940262690E-02
 7.609992623E-01 2.332800031E-01 1.234763861E+00 -1.436570939E-02
 7.625426054E-01 2.420639545E-01 1.234411001E+00 -9.196891449E-03
 7.641648054E-01 2.512967885E-01 1.233968139E+00 -3.897519549E-03
 7.658699155E-01 2.610014975E-01 1.233443856E+00 1.528515946E-03
 7.676621675E-01 2.712021470E-01 1.232819319E+00 7.087737322E-03
 7.695460320E-01 2.819240987E-01 1.232102036E+00 1.277386304E-02
 7.715261579E-01 2.931939960E-01 1.231285572E+00 1.858987473E-02
 7.736074924E-01 3.050398827E-01 1.230356693E+00 2.452520095E-02
 7.757951617E-01 3.174911141E-01 1.229310036E+00 3.055082448E-02
 7.780946493E-01 3.305786848E-01 1.228133559E+00 3.667429835E-02
 7.805116773E-01 3.443350792E-01 1.226850033E+00 4.288417101E-02
ZONE T="x=.7863"
 7.863000035E-01 5.103440955E-02 8.341434295E-06 -1.627417191E-06
 7.863003612E-01 5.103637278E-02 3.846852633E-05 -7.523841759E-06
 7.863007784E-01 5.103834346E-02 7.854533033E-05 -1.535152478E-05
 7.863011360E-01 5.104032159E-02 1.189772593E-04 -2.324443631E-05
 7.863014936E-01 5.104231462E-02 1.701169385E-04 -3.321106487E-05
 7.863019109E-01 5.104433000E-02 2.216422727E-04 -4.324938709E-05
 7.863022685E-01 5.104636773E-02 2.850732708E-04 -5.558943303E-05
 7.863026857E-01 5.104843527E-02 3.486393543E-04 -6.795534136E-05
 7.863031030E-01 5.105053633E-02 4.263448354E-04 -8.305199299E-05
 7.863035202E-01 5.105267838E-02 5.029755412E-04 -9.794346988E-05
 7.863039374E-01 5.105486885E-02 5.970027996E-04 -1.161922410E-04
 7.863043547E-01 5.105710775E-02 6.890651421E-04 -1.340675080E-04
 7.863047719E-01 5.105940253E-02 8.017031942E-04 -1.559100201E-04
 7.863052487E-01 5.106176063E-02 9.195217281E-04 -1.787541987E-04
 7.863057256E-01 5.106418580E-02 1.046745805E-03 -2.034228382E-04
 7.863062024E-01 5.106668547E-02 1.190428855E-03 -2.312596334E-04
 7.863066792E-01 5.106926337E-02 1.338313916E-03 -2.599241270E-04
 7.863072157E-01 5.107193068E-02 1.511906041E-03 -2.935365192E-04
 7.863077521E-01 5.107469112E-02 1.696386258E-03 -3.292523907E-04
 7.863082886E-01 5.107754841E-02 1.895362278E-03 -3.677853965E-04
 7.863088250E-01 5.108051747E-02 2.119382145E-03 -4.111313319E-04
 7.863094211E-01 5.108359829E-02 2.354734344E-03 -4.566834250E-04
 7.863100171E-01 5.108680204E-02 2.621550811E-03 -5.083012511E-04
 7.863106728E-01 5.109013617E-02 2.914820565E-03 -5.650110543E-04
 7.863113284E-01 5.109360814E-02 3.226458561E-03 -6.252853782E-04
 7.863120437E-01 5.109722912E-02 3.575637937E-03 -6.928037037E-04
 7.863127589E-01 5.110100657E-02 3.960990347E-03 -7.672767970E-04
 7.863135338E-01 5.110494792E-02 4.380581435E-03 -8.483516285E-04
 7.863143086E-01 5.110906437E-02 4.830332473E-03 -9.353036294E-04
 7.863151431E-01 5.111336708E-02 5.339566618E-03 -1.033664797E-03
 7.863159776E-01 5.111786351E-02 5.893975496E-03 -1.140731503E-03
 7.863169312E-01 5.112257227E-02 6.499534007E-03 -1.257669181E-03
 7.863178253E-01 5.112749711E-02 7.158318534E-03 -1.384926145E-03
 7.863188386E-01 5.113265291E-02 7.896215655E-03 -1.527352259E-03
 7.863198519E-01 5.113805458E-02 8.702702820E-03 -1.682987320E-03
 7.863209844E-01 5.114371330E-02 9.587853216E-03 -1.853770460E-03
 7.863221169E-01 5.114964396E-02 1.054415852E-02 -2.038386185E-03
 7.863233089E-01 5.115586147E-02 1.161867008E-02 -2.245628741E-03
 7.863245606E-01 5.116238073E-02 1.279695798E-02 -2.472839085E-03
 7.863258719E-01 5.116921663E-02 1.408801973E-02 -2.721742028E-03
 7.863272429E-01 5.117639154E-02 1.550199930E-02 -2.994282404E-03
 7.863286734E-01 5.118391663E-02 1.704074442E-02 -3.291023429E-03
 7.863301635E-01 5.119181424E-02 1.875743642E-02 -3.621759359E-03
 7.863317728E-01 5.120010301E-02 2.064031176E-02 -3.984414972E-03
 7.863334417E-01 5.120880157E-02 2.269897796E-02 -4.380814265E-03
 7.863351703E-01 5.121793598E-02 2.494722418E-02 -4.813584033E-03
 7.863370180E-01 5.122752488E-02 2.739026211E-02 -5.283914506E-03
 7.863389850E-01 5.123759806E-02 3.008327261E-02 -5.802047905E-03
 7.863410115E-01 5.124817044E-02 3.301535174E-02 -6.365773734E-03
 7.863430977E-01 5.125927925E-02 3.618973121E-02 -6.975762080E-03
 7.863453627E-01 5.127094314E-02 3.961641714E-02 -7.633835543E-03
 7.863476872E-01 5.128319934E-02 4.329212755E-02 -8.339235559E-03
 7.863501906E-01 5.129607022E-02 4.720037803E-02 -9.088964202E-03
 7.863527536E-01 5.130959302E-02 5.133946985E-02 -9.881849401E-03
 7.863554955E-01 5.132380128E-02 5.568363518E-02 -1.071268693E-02
 7.863583565E-01 5.133872852E-02 6.017799675E-02 -1.157086156E-02
 7.863613367E-01 5.135441199E-02 6.477709860E-02 -1.244733017E-02
 7.863644958E-01 5.137088895E-02 6.943359971E-02 -1.333266776E-02
 7.863678336E-01 5.138820410E-02 7.409329712E-02 -1.421622001E-02
 7.863713503E-01 5.140640214E-02 7.864300907E-02 -1.507586334E-02
 7.863749862E-01 5.142552033E-02 8.306851983E-02 -1.590779796E-02
 7.863788605E-01 5.144561455E-02 8.735191077E-02 -1.670904085E-02
 7.863829136E-01 5.146672577E-02 9.147043526E-02 -1.747506857E-02