# NACA 4412, alpha=13.87, Re=1.52 million, 897x257 grid, CFL3D with SST model
#    x = x/c
#    y = y/c
#    uv = (u'v'/Uinf^2)/(0.93^2)
#    (0.93^2 needed to put normalization in terms of experimental ref location below and behind airfoil)
VARIABLES = "x","y","uv"
ZONE T="x=.6753"
 6.753000021E-01 7.061254978E-02 -2.329899728E-12
 6.753003001E-01 7.061452419E-02 -1.807663567E-11
 6.753006577E-01 7.061649859E-02 -4.539674192E-11
 6.753009558E-01 7.061848789E-02 -1.620474727E-10
 6.753013134E-01 7.062049210E-02 -3.446669894E-10
 6.753016114E-01 7.062251866E-02 -8.620165137E-10
 6.753019691E-01 7.062456012E-02 -1.589771759E-09
 6.753023267E-01 7.062663883E-02 -3.289167383E-09
 6.753026843E-01 7.062875479E-02 -5.463152153E-09
 6.753030419E-01 7.063090801E-02 -1.009925743E-08
 6.753033996E-01 7.063310593E-02 -1.545809702E-08
 6.753037572E-01 7.063535601E-02 -2.663148457E-08
 6.753041148E-01 7.063765824E-02 -3.939425852E-08
 6.753045321E-01 7.064002752E-02 -6.313563716E-08
 6.753048897E-01 7.064246386E-02 -9.199169426E-08
 6.753053069E-01 7.064497471E-02 -1.379968637E-07
 6.753057241E-01 7.064756751E-02 -1.993318932E-07
 6.753062010E-01 7.065024227E-02 -2.814383890E-07
 6.753066182E-01 7.065301389E-02 -4.082720579E-07
 6.753070951E-01 7.065588981E-02 -5.616458907E-07
 6.753076315E-01 7.065887004E-02 -7.966945645E-07
 6.753081083E-01 7.066196203E-02 -1.095815264E-06
 6.753086448E-01 7.066518068E-02 -1.475848649E-06
 6.753091812E-01 7.066853344E-02 -2.061138957E-06
 6.753097773E-01 7.067202032E-02 -2.771435447E-06
 6.753103733E-01 7.067565620E-02 -3.700570005E-06
 6.753109694E-01 7.067944854E-02 -5.050423169E-06
 6.753116250E-01 7.068340480E-02 -6.694338936E-06
 6.753123403E-01 7.068753988E-02 -8.805149264E-06
 6.753129959E-01 7.069186121E-02 -1.178964976E-05
 6.753137708E-01 7.069637626E-02 -1.544678162E-05
 6.753145456E-01 7.070109993E-02 -2.000386667E-05
 6.753153801E-01 7.070604712E-02 -2.599633990E-05
 6.753162146E-01 7.071122527E-02 -3.362722418E-05
 6.753171086E-01 7.071664929E-02 -4.273304876E-05
 6.753180027E-01 7.072233409E-02 -5.380657603E-05
 6.753190160E-01 7.072828710E-02 -6.750580360E-05
 6.753200293E-01 7.073453069E-02 -8.372571756E-05
 6.753211021E-01 7.074107230E-02 -1.021018033E-04
 6.753222346E-01 7.074794173E-02 -1.230404450E-04
 6.753234267E-01 7.075513899E-02 -1.467198308E-04
 6.753246784E-01 7.076269388E-02 -1.728765637E-04
 6.753259301E-01 7.077062130E-02 -2.003723930E-04
 6.753273010E-01 7.077894360E-02 -2.294303558E-04
 6.753287315E-01 7.078767568E-02 -2.598558494E-04
 6.753302813E-01 7.079684734E-02 -2.911755582E-04
 6.753318310E-01 7.080647349E-02 -3.225204418E-04
 6.753334999E-01 7.081657648E-02 -3.537421289E-04
 6.753352284E-01 7.082719356E-02 -3.848804045E-04
 6.753370762E-01 7.083833963E-02 -4.158093070E-04
 6.753389835E-01 7.085005194E-02 -4.464332596E-04
 6.753410101E-01 7.086235285E-02 -4.760403826E-04
 6.753431559E-01 7.087527215E-02 -5.051014014E-04
 6.753453612E-01 7.088883966E-02 -5.336360773E-04
 6.753476858E-01 7.090310007E-02 -5.617747665E-04
 6.753501892E-01 7.091808319E-02 -5.896450020E-04
 6.753527522E-01 7.093381882E-02 -6.171258283E-04
 6.753554940E-01 7.095035911E-02 -6.441308069E-04
 6.753582954E-01 7.096773386E-02 -6.709511508E-04
 6.753613353E-01 7.098598778E-02 -6.977499579E-04
 6.753644943E-01 7.100518048E-02 -7.246293826E-04
 6.753677726E-01 7.102534175E-02 -7.517019403E-04
 6.753712296E-01 7.104652375E-02 -7.790025556E-04
 6.753749251E-01 7.106878608E-02 -8.064325084E-04
 6.753787398E-01 7.109218836E-02 -8.342444198E-04
 6.753827929E-01 7.111677527E-02 -8.625150076E-04
 6.753870249E-01 7.114262134E-02 -8.913579513E-04
 6.753914952E-01 7.116977870E-02 -9.208678966E-04
 6.753962040E-01 7.119832188E-02 -9.511411772E-04
 6.754010916E-01 7.122831792E-02 -9.820736013E-04
 6.754062772E-01 7.125984132E-02 -1.013832400E-03
 6.754117012E-01 7.129298151E-02 -1.046452555E-03
 6.754174232E-01 7.132780552E-02 -1.080064569E-03
 6.754234433E-01 7.136441022E-02 -1.114743995E-03
 6.754297614E-01 7.140287757E-02 -1.150601311E-03
 6.754364371E-01 7.144331187E-02 -1.187646645E-03
 6.754434109E-01 7.148580253E-02 -1.225833315E-03
 6.754507422E-01 7.153046876E-02 -1.265325001E-03
 6.754584312E-01 7.157741487E-02 -1.306156628E-03
 6.754665375E-01 7.162676007E-02 -1.348449849E-03
 6.754750609E-01 7.167862356E-02 -1.392282662E-03
 6.754840016E-01 7.173313200E-02 -1.437741797E-03
 6.754934192E-01 7.179042697E-02 -1.484806649E-03
 6.755033135E-01 7.185064256E-02 -1.533498056E-03
 6.755136847E-01 7.191393524E-02 -1.583932899E-03
 6.755245924E-01 7.198046148E-02 -1.636190922E-03
 6.755360961E-01 7.205038518E-02 -1.690366771E-03
 6.755481362E-01 7.212388515E-02 -1.746554859E-03
 6.755608320E-01 7.220113277E-02 -1.804819563E-03
 6.755741835E-01 7.228232920E-02 -1.865091617E-03
 6.755881906E-01 7.236767560E-02 -1.927464735E-03
 6.756029129E-01 7.245738059E-02 -1.992023550E-03
 6.756184101E-01 7.255166769E-02 -2.058868296E-03
 6.756346822E-01 7.265076786E-02 -2.128071850E-03
 6.756517887E-01 7.275493443E-02 -2.199737122E-03
 6.756697297E-01 7.286442071E-02 -2.273880877E-03
 6.756886840E-01 7.297950238E-02 -2.350368537E-03
 6.757085323E-01 7.310046256E-02 -2.429348882E-03
 6.757293940E-01 7.322760671E-02 -2.510907827E-03
 6.757513285E-01 7.336124033E-02 -2.595111495E-03
 6.757743955E-01 7.350170612E-02 -2.682015300E-03
 6.757986546E-01 7.364934683E-02 -2.771665575E-03
 6.758241057E-01 7.380452752E-02 -2.864056500E-03
 6.758509278E-01 7.396764308E-02 -2.958850935E-03
 6.758790612E-01 7.413908839E-02 -3.056310117E-03
 6.759086251E-01 7.431929559E-02 -3.156484803E-03
 6.759397388E-01 7.450871170E-02 -3.259370569E-03
 6.759724617E-01 7.470779866E-02 -3.364922479E-03
 6.760067940E-01 7.491706312E-02 -3.473066725E-03
 6.760429144E-01 7.513701916E-02 -3.583760932E-03
 6.760808825E-01 7.536821812E-02 -3.696222557E-03
 6.761207581E-01 7.561122626E-02 -3.810907248E-03
 6.761627197E-01 7.586664706E-02 -3.927735612E-03
 6.762068272E-01 7.613512129E-02 -4.046522081E-03
 6.762531400E-01 7.641731948E-02 -4.166945815E-03
 6.763018370E-01 7.671392709E-02 -4.288723692E-03
 6.763530374E-01 7.702569664E-02 -4.411526490E-03
 6.764068604E-01 7.735339552E-02 -4.533909727E-03
 6.764634252E-01 7.769784331E-02 -4.658025224E-03
 6.765228510E-01 7.805988193E-02 -4.786306527E-03
 6.765853167E-01 7.844042033E-02 -4.909041338E-03
 6.766510010E-01 7.884040475E-02 -5.021718331E-03
 6.767200232E-01 7.926083356E-02 -5.133935250E-03
 6.767926216E-01 7.970273495E-02 -5.245794076E-03
 6.768688560E-01 8.016721904E-02 -5.354569759E-03
 6.769490242E-01 8.065544069E-02 -5.459302571E-03
 6.770333052E-01 8.116860688E-02 -5.557818338E-03
 6.771218777E-01 8.170799166E-02 -5.647939630E-03
 6.772149801E-01 8.227493614E-02 -5.725666415E-03
 6.773127913E-01 8.287085593E-02 -5.788321141E-03
 6.774156690E-01 8.349721879E-02 -5.831272807E-03
 6.775237918E-01 8.415558934E-02 -5.846128799E-03
 6.776373982E-01 8.484759927E-02 -5.831404589E-03
 6.777568460E-01 8.557496965E-02 -5.781440064E-03
 6.778823733E-01 8.633950353E-02 -5.688649137E-03
 6.780143380E-01 8.714310825E-02 -5.549420137E-03
 6.781530380E-01 8.798776567E-02 -5.358005408E-03
 6.782987714E-01 8.887559175E-02 -5.109839607E-03
 6.784520149E-01 8.980877697E-02 -4.807387013E-03
 6.786130667E-01 9.078964591E-02 -4.469394684E-03
 6.787824035E-01 9.182063490E-02 -4.062830471E-03
 6.789603233E-01 9.290430695E-02 -3.530366113E-03
 6.791473627E-01 9.404335171E-02 -2.883427311E-03
 6.793439388E-01 9.524059296E-02 -2.227958292E-03
 6.795505881E-01 9.649901092E-02 -1.571978442E-03
 6.797677875E-01 9.782173485E-02 -9.954620618E-04
 6.799960732E-01 9.921204299E-02 -5.525209708E-04
 6.802359819E-01 1.006733850E-01 -2.593979880E-04
 6.804882288E-01 1.022094041E-01 -9.482748283E-05
 6.807532907E-01 1.038239077E-01 -2.342853440E-05
 6.810319424E-01 1.055209115E-01 -3.509145017E-06
 6.813248396E-01 1.073046178E-01 -1.546504791E-06
 6.816326976E-01 1.091794744E-01 -1.496732352E-06
 6.819562912E-01 1.111501232E-01 -1.126215352E-06
 6.822963953E-01 1.132214740E-01 -6.806795909E-07
 6.826539040E-01 1.153986603E-01 -3.419837640E-07
 6.830296516E-01 1.176870912E-01 -1.535138665E-07
 6.834245920E-01 1.200924516E-01 -6.671070452E-08
 6.838397384E-01 1.226207241E-01 -3.078965349E-08
 6.842761040E-01 1.252781898E-01 -1.484365608E-08
 6.847347617E-01 1.280714273E-01 -6.634694572E-09
 6.852168441E-01 1.310074031E-01 -2.794766418E-09
 6.857236028E-01 1.340934038E-01 -1.180380238E-09
 6.862561703E-01 1.373370737E-01 -5.328004149E-10
 6.868160367E-01 1.407464892E-01 -2.692960577E-10
 6.874044538E-01 1.443301290E-01 -1.720367321E-10
 6.880229712E-01 1.480968595E-01 -1.348336581E-10
 6.886730790E-01 1.520560831E-01 -1.189314064E-10
 6.893563867E-01 1.562175900E-01 -1.118656348E-10
 6.900746226E-01 1.605917513E-01 -1.082242837E-10
 6.908295751E-01 1.651894003E-01 -1.057755966E-10
 6.916230917E-01 1.700219959E-01 -1.034297509E-10
 6.924571395E-01 1.751015037E-01 -1.007123065E-10
 6.933338046E-01 1.804405749E-01 -9.740639545E-11
 6.942552924E-01 1.860524565E-01 -9.343906898E-11
 6.952238083E-01 1.919510812E-01 -8.870206653E-11
 6.962418556E-01 1.981510967E-01 -8.299312626E-11
 6.973119378E-01 2.046679258E-01 -7.630673871E-11
 6.984366775E-01 2.115177512E-01 -6.853784207E-11
 6.996188760E-01 2.187175751E-01 -5.942094039E-11
 7.008615136E-01 2.262852788E-01 -4.864183709E-11
 7.021676302E-01 2.342396826E-01 -3.646322133E-11
 7.035405040E-01 2.426005304E-01 -2.282065682E-11
 7.049834728E-01 2.513885796E-01 -7.496485203E-12
 7.065002322E-01 2.606256902E-01 9.389473574E-12
 7.080944777E-01 2.703347802E-01 2.788227982E-11
 7.097701430E-01 2.805399597E-01 4.841484158E-11
 7.115314603E-01 2.912665904E-01 7.062004453E-11
 7.133827806E-01 3.025413454E-01 9.430339842E-11
 7.153286934E-01 3.143922091E-01 1.195893939E-10
 7.173740864E-01 3.268485963E-01 1.463176386E-10
 7.195239067E-01 3.399414718E-01 1.744756978E-10
 7.217836380E-01 3.537033498E-01 2.038570701E-10
ZONE T="x=.7308"
 7.307999730E-01 6.140028313E-02 -7.129897123E-14
 7.308003306E-01 6.140225381E-02 -2.730993600E-13
 7.308006883E-01 6.140422821E-02 -1.832652086E-12
 7.308010459E-01 6.140621379E-02 -5.510173481E-12
 7.308014035E-01 6.140821055E-02 -1.844853957E-11
 7.308017612E-01 6.141022965E-02 -4.347994534E-11
 7.308021188E-01 6.141227484E-02 -1.065248792E-10
 7.308024764E-01 6.141434982E-02 -2.088772488E-10
 7.308028340E-01 6.141645461E-02 -4.310915236E-10
 7.308031917E-01 6.141860411E-02 -7.413768488E-10
 7.308036089E-01 6.142079830E-02 -1.388778204E-09
 7.308040261E-01 6.142304465E-02 -2.163748736E-09
 7.308043838E-01 6.142534688E-02 -3.801551962E-09
 7.308048010E-01 6.142770872E-02 -5.752980314E-09
 7.308052182E-01 6.143014133E-02 -9.291659886E-09
 7.308056951E-01 6.143264845E-02 -1.397710570E-08
 7.308061123E-01 6.143523380E-02 -2.087403139E-08
 7.308065891E-01 6.143790856E-02 -3.123306058E-08
 7.308071256E-01 6.144067645E-02 -4.414299681E-08
 7.308076024E-01 6.144354120E-02 -6.539266906E-08
 7.308081388E-01 6.144651771E-02 -9.271701629E-08
 7.308086753E-01 6.144960597E-02 -1.293358878E-07
 7.308092117E-01 6.145282090E-02 -1.852924214E-07
 7.308098078E-01 6.145616248E-02 -2.556394350E-07
 7.308104038E-01 6.145964563E-02 -3.525585726E-07
 7.308110595E-01 6.146327406E-02 -4.933921218E-07
 7.308117151E-01 6.146705896E-02 -6.722942203E-07
 7.308124304E-01 6.147101149E-02 -9.079720940E-07
 7.308131456E-01 6.147513911E-02 -1.257125291E-06
 7.308139205E-01 6.147945300E-02 -1.703013254E-06
 7.308146954E-01 6.148396060E-02 -2.273516202E-06
 7.308155298E-01 6.148868054E-02 -3.079456519E-06
 7.308164239E-01 6.149361655E-02 -4.152649126E-06
 7.308173180E-01 6.149878725E-02 -5.525306278E-06
 7.308182716E-01 6.150420010E-02 -7.282836577E-06
 7.308192253E-01 6.150987372E-02 -9.677661183E-06
 7.308202982E-01 6.151581928E-02 -1.278665059E-05
 7.308213711E-01 6.152205169E-02 -1.667126526E-05
 7.308225632E-01 6.152858585E-02 -2.149799548E-05
 7.308237553E-01 6.153543666E-02 -2.755936111E-05
 7.308250070E-01 6.154262647E-02 -3.529468449E-05
 7.308263183E-01 6.155017018E-02 -4.439334589E-05
 7.308277488E-01 6.155808643E-02 -5.505682566E-05
 7.308291793E-01 6.156639382E-02 -6.731727626E-05
 7.308307290E-01 6.157511100E-02 -8.141656872E-05
 7.308323383E-01 6.158426777E-02 -9.721543756E-05
 7.308340073E-01 6.159387901E-02 -1.140655877E-04
 7.308357954E-01 6.160397083E-02 -1.319646399E-04
 7.308376431E-01 6.161456928E-02 -1.506892004E-04
 7.308396101E-01 6.162570044E-02 -1.701065048E-04
 7.308416367E-01 6.163739040E-02 -1.898668124E-04
 7.308438420E-01 6.164967269E-02 -2.096001990E-04
 7.308461070E-01 6.166257337E-02 -2.292932186E-04
 7.308484912E-01 6.167612597E-02 -2.489600447E-04
 7.308509946E-01 6.169036031E-02 -2.685535874E-04
 7.308536172E-01 6.170532107E-02 -2.881348773E-04
 7.308563590E-01 6.172103435E-02 -3.075618588E-04
 7.308592796E-01 6.173754856E-02 -3.268336004E-04
 7.308623195E-01 6.175490096E-02 -3.461033630E-04
 7.308655381E-01 6.177313253E-02 -3.654930333E-04
 7.308688760E-01 6.179229170E-02 -3.850552603E-04
 7.308723927E-01 6.181242317E-02 -4.048830597E-04
 7.308761477E-01 6.183357909E-02 -4.250569327E-04
 7.308800220E-01 6.185581163E-02 -4.454926820E-04
 7.308841348E-01 6.187917665E-02 -4.663233703E-04
 7.308884263E-01 6.190373376E-02 -4.876811290E-04
 7.308930159E-01 6.192953885E-02 -5.096393288E-04
 7.308977842E-01 6.195665896E-02 -5.322403740E-04
 7.309027910E-01 6.198516488E-02 -5.556232645E-04
 7.309080362E-01 6.201511994E-02 -5.797370686E-04
 7.309135795E-01 6.204660609E-02 -6.046302151E-04
 7.309193611E-01 6.207969412E-02 -6.303779082E-04
 7.309255004E-01 6.211447343E-02 -6.571020349E-04
 7.309318781E-01 6.215102598E-02 -6.848428748E-04
 7.309386730E-01 6.218944490E-02 -7.136996719E-04
 7.309457660E-01 6.222982705E-02 -7.437694585E-04
 7.309532166E-01 6.227226555E-02 -7.749877404E-04
 7.309610248E-01 6.231687218E-02 -8.074131329E-04
 7.309693098E-01 6.236375868E-02 -8.411680465E-04
 7.309779525E-01 6.241303682E-02 -8.763207006E-04
 7.309870124E-01 6.246483326E-02 -9.129467653E-04
 7.309966087E-01 6.251927465E-02 -9.511699318E-04
 7.310066819E-01 6.257649511E-02 -9.910468943E-04
 7.310172319E-01 6.263663620E-02 -1.032548724E-03
 7.310283184E-01 6.269985437E-02 -1.075721812E-03
 7.310400009E-01 6.276629865E-02 -1.120713307E-03
 7.310522795E-01 6.283613294E-02 -1.167607610E-03
 7.310651541E-01 6.290954351E-02 -1.216490055E-03
 7.310787439E-01 6.298670173E-02 -1.267513493E-03
 7.310929894E-01 6.306780130E-02 -1.320678624E-03
 7.311079502E-01 6.315304339E-02 -1.375995111E-03
 7.311236858E-01 6.324263662E-02 -1.433508820E-03
 7.311402559E-01 6.333681196E-02 -1.493408112E-03
 7.311576605E-01 6.343580037E-02 -1.555773313E-03
 7.311758995E-01 6.353984028E-02 -1.620679395E-03
 7.311951518E-01 6.364920735E-02 -1.688337885E-03
 7.312153578E-01 6.376415491E-02 -1.758652274E-03
 7.312365770E-01 6.388497353E-02 -1.831665286E-03
 7.312588692E-01 6.401196867E-02 -1.907449216E-03
 7.312823534E-01 6.414546072E-02 -1.986188348E-03
 7.313069701E-01 6.428576261E-02 -2.067945199E-03
 7.313328981E-01 6.443323940E-02 -2.152833389E-03
 7.313601375E-01 6.458825618E-02 -2.240983071E-03
 7.313887477E-01 6.475118548E-02 -2.332243370E-03
 7.314188480E-01 6.492244452E-02 -2.426652703E-03
 7.314504981E-01 6.510245800E-02 -2.524329349E-03
 7.314836979E-01 6.529167295E-02 -2.625379711E-03
 7.315186858E-01 6.549055129E-02 -2.729867119E-03
 7.315554023E-01 6.569959223E-02 -2.837838838E-03
 7.315939665E-01 6.591931731E-02 -2.949311165E-03
 7.316345572E-01 6.615027785E-02 -3.063998651E-03
 7.316772342E-01 6.639303267E-02 -3.181883600E-03
 7.317220569E-01 6.664819270E-02 -3.303122707E-03
 7.317692041E-01 6.691639870E-02 -3.427695250E-03
 7.318187356E-01 6.719830632E-02 -3.555528354E-03
 7.318707705E-01 6.749462336E-02 -3.686488373E-03
 7.319254875E-01 6.780607998E-02 -3.820444690E-03
 7.319830060E-01 6.813345850E-02 -3.956687171E-03
 7.320435047E-01 6.847756356E-02 -4.095114302E-03
 7.321070433E-01 6.883925200E-02 -4.235786386E-03
 7.321738005E-01 6.921942532E-02 -4.378476180E-03
 7.322440147E-01 6.961902976E-02 -4.523304757E-03
 7.323178053E-01 7.003905624E-02 -4.672037438E-03
 7.323954105E-01 7.048054785E-02 -4.825689364E-03
 7.324769497E-01 7.094459981E-02 -4.962906707E-03
 7.325626612E-01 7.143236697E-02 -5.101761781E-03
 7.326527238E-01 7.194506377E-02 -5.243029911E-03
 7.327473760E-01 7.248395681E-02 -5.386419129E-03
 7.328469157E-01 7.305039465E-02 -5.530328956E-03
 7.329515219E-01 7.364577800E-02 -5.673191976E-03
 7.330614924E-01 7.427158952E-02 -5.813107826E-03
 7.331770658E-01 7.492938638E-02 -5.945414770E-03
 7.332985401E-01 7.562079281E-02 -6.067949813E-03
 7.334262133E-01 7.634753734E-02 -6.178332493E-03
 7.335604429E-01 7.711142302E-02 -6.272349041E-03
 7.337015271E-01 7.791434973E-02 -6.346960086E-03
 7.338498235E-01 7.875830680E-02 -6.397097837E-03
 7.340056896E-01 7.964538783E-02 -6.417126860E-03
 7.341694832E-01 8.057781309E-02 -6.392537151E-03
 7.343416810E-01 8.155788481E-02 -6.317855325E-03
 7.345227003E-01 8.258804679E-02 -6.185080390E-03
 7.347129583E-01 8.367084712E-02 -5.989122204E-03
 7.349129319E-01 8.480899036E-02 -5.733660888E-03
 7.351230979E-01 8.600530028E-02 -5.419313908E-03
 7.353440523E-01 8.726274222E-02 -5.048476160E-03
 7.355762720E-01 8.858445287E-02 -4.379248247E-03
 7.358203530E-01 8.997370303E-02 -3.643910866E-03
 7.360768914E-01 9.143395722E-02 -2.867184579E-03
 7.363466024E-01 9.296883643E-02 -2.087468980E-03
 7.366300821E-01 9.458214790E-02 -1.365156146E-03
 7.369279861E-01 9.627791494E-02 -7.684335578E-04
 7.372411489E-01 9.806034714E-02 -3.527252702E-04
 7.375703454E-01 9.993386269E-02 -1.484438981E-04
 7.379163504E-01 1.019031331E-01 -5.217717990E-05
 7.382800579E-01 1.039730385E-01 -1.521443210E-05
 7.386623025E-01 1.061487272E-01 -5.397748282E-06
 7.390640974E-01 1.084356010E-01 -3.575192522E-06
 7.394864559E-01 1.108393520E-01 -2.511758339E-06
 7.399303913E-01 1.133659482E-01 -1.443495194E-06
 7.403969765E-01 1.160216630E-01 -7.617990150E-07
 7.408874035E-01 1.188130975E-01 -3.743709840E-07
 7.414029241E-01 1.217471883E-01 -1.723192611E-07
 7.419447899E-01 1.248312294E-01 -7.752986875E-08
 7.425143719E-01 1.280728728E-01 -3.324244346E-08
 7.431130409E-01 1.314801872E-01 -1.363211943E-08
 7.437422872E-01 1.350616366E-01 -5.343637532E-09
 7.444037199E-01 1.388261169E-01 -2.471627791E-09
 7.450989485E-01 1.427829713E-01 -1.145532891E-09
 7.458297014E-01 1.469420493E-01 -5.473638764E-10
 7.465977669E-01 1.513136774E-01 -3.027139650E-10
 7.474051118E-01 1.559087187E-01 -2.119747572E-10
 7.482537627E-01 1.607385874E-01 -1.786938375E-10
 7.491457462E-01 1.658152938E-01 -1.668933047E-10
 7.500832677E-01 1.711514294E-01 -1.631255825E-10
 7.510687709E-01 1.767602861E-01 -1.611348277E-10
 7.521045804E-01 1.826557815E-01 -1.594573640E-10
 7.531933784E-01 1.888525635E-01 -1.575427983E-10
 7.543377876E-01 1.953660399E-01 -1.550693879E-10
 7.555406690E-01 2.022123784E-01 -1.518304510E-10
 7.568050623E-01 2.094085962E-01 -1.477424572E-10
 7.581340671E-01 2.169725895E-01 -1.424422802E-10
 7.595309615E-01 2.249231488E-01 -1.358533008E-10
 7.609992623E-01 2.332800031E-01 -1.280387740E-10
 7.625426054E-01 2.420639545E-01 -1.188836252E-10
 7.641648054E-01 2.512967885E-01 -1.083362913E-10
 7.658699155E-01 2.610014975E-01 -9.636408338E-11
 7.676621675E-01 2.712021470E-01 -8.266764356E-11
 7.695460320E-01 2.819240987E-01 -6.724556328E-11
 7.715261579E-01 2.931939960E-01 -5.031250416E-11
 7.736074924E-01 3.050398827E-01 -3.174579349E-11
 7.757951617E-01 3.174911141E-01 -1.170428771E-11
 7.780946493E-01 3.305786848E-01 9.788390584E-12
 7.805116773E-01 3.443350792E-01 3.258152775E-11
ZONE T="x=.7863"
 7.863000035E-01 5.103440955E-02 6.200349466E-16
 7.863003612E-01 5.103637278E-02 1.186446673E-14
 7.863007784E-01 5.103834346E-02 4.096617251E-14
 7.863011360E-01 5.104032159E-02 2.171282089E-13
 7.863014936E-01 5.104231462E-02 5.540596194E-13
 7.863019109E-01 5.104433000E-02 1.568659916E-12
 7.863022685E-01 5.104636773E-02 3.319925281E-12
 7.863026857E-01 5.104843527E-02 6.729443825E-12
 7.863031030E-01 5.105053633E-02 1.247939859E-11
 7.863035202E-01 5.105267838E-02 2.064261956E-11
 7.863039374E-01 5.105486885E-02 3.427257089E-11
 7.863043547E-01 5.105710775E-02 4.951406993E-11
 7.863047719E-01 5.105940253E-02 7.431225774E-11
 7.863052487E-01 5.106176063E-02 9.679681362E-11
 7.863057256E-01 5.106418580E-02 1.207119266E-10
 7.863062024E-01 5.106668547E-02 1.478694112E-10
 7.863066792E-01 5.106926337E-02 1.436863684E-10
 7.863072157E-01 5.107193068E-02 1.277670608E-10
 7.863077521E-01 5.107469112E-02 4.015246122E-11
 7.863082886E-01 5.107754841E-02 -2.187704046E-10
 7.863088250E-01 5.108051747E-02 -5.628600919E-10
 7.863094211E-01 5.108359829E-02 -1.281128759E-09
 7.863100171E-01 5.108680204E-02 -2.512968278E-09
 7.863106728E-01 5.109013617E-02 -4.326157654E-09
 7.863113284E-01 5.109360814E-02 -7.411661507E-09
 7.863120437E-01 5.109722912E-02 -1.232422431E-08
 7.863127589E-01 5.110100657E-02 -1.917439185E-08
 7.863135338E-01 5.110494792E-02 -2.966219270E-08
 7.863143086E-01 5.110906437E-02 -4.670585696E-08
 7.863151431E-01 5.111336708E-02 -6.951629672E-08
 7.863159776E-01 5.111786351E-02 -1.022300609E-07
 7.863169312E-01 5.112257227E-02 -1.529791120E-07
 7.863178253E-01 5.112749711E-02 -2.265062875E-07
 7.863188386E-01 5.113265291E-02 -3.255090917E-07
 7.863198519E-01 5.113805458E-02 -4.639512952E-07
 7.863209844E-01 5.114371330E-02 -6.693318824E-07
 7.863221169E-01 5.114964396E-02 -9.617289152E-07
 7.863233089E-01 5.115586147E-02 -1.348831802E-06
 7.863245606E-01 5.116238073E-02 -1.881878575E-06
 7.863258719E-01 5.116921663E-02 -2.599777417E-06
 7.863272429E-01 5.117639154E-02 -3.624717920E-06
 7.863286734E-01 5.118391663E-02 -4.975124739E-06
 7.863301635E-01 5.119181424E-02 -6.694082003E-06
 7.863317728E-01 5.120010301E-02 -8.924561371E-06
 7.863334417E-01 5.120880157E-02 -1.173066266E-05
 7.863351703E-01 5.121793598E-02 -1.534136391E-05
 7.863370180E-01 5.122752488E-02 -1.968903416E-05
 7.863389850E-01 5.123759806E-02 -2.473741188E-05
 7.863410115E-01 5.124817044E-02 -3.061284588E-05
 7.863430977E-01 5.125927925E-02 -3.724838098E-05
 7.863453627E-01 5.127094314E-02 -4.462785364E-05
 7.863476872E-01 5.128319934E-02 -5.263553612E-05
 7.863501906E-01 5.129607022E-02 -6.115396536E-05
 7.863527536E-01 5.130959302E-02 -7.004373765E-05
 7.863554955E-01 5.132380128E-02 -7.939591887E-05
 7.863583565E-01 5.133872852E-02 -8.909007011E-05
 7.863613367E-01 5.135441199E-02 -9.907485946E-05
 7.863644958E-01 5.137088895E-02 -1.093234969E-04
 7.863678336E-01 5.138820410E-02 -1.198721511E-04
 7.863713503E-01 5.140640214E-02 -1.306980994E-04
 7.863749862E-01 5.142552033E-02 -1.418832253E-04
 7.863788605E-01 5.144561455E-02 -1.534384792E-04
 7.863829136E-01 5.146672577E-02 -1.653735235E-04
 7.863871455E-01 5.148891732E-02 -1.776991412E-04
 7.863916159E-01 5.151223764E-02 -1.904875098E-04
 7.863963246E-01 5.153674260E-02 -2.037660597E-04
 7.864012718E-01 5.156249925E-02 -2.175551344E-04
 7.864064574E-01 5.158956721E-02 -2.319507912E-04
 7.864118814E-01 5.161801726E-02 -2.469561878E-04
 7.864176631E-01 5.164791644E-02 -2.626151254E-04
 7.864236832E-01 5.167934299E-02 -2.789569844E-04
 7.864300013E-01 5.171237141E-02 -2.960391284E-04
 7.864366770E-01 5.174708739E-02 -3.138853644E-04
 7.864436507E-01 5.178357288E-02 -3.325666476E-04
 7.864509821E-01 5.182192102E-02 -3.521424951E-04
 7.864587307E-01 5.186222866E-02 -3.726508585E-04
 7.864668369E-01 5.190459266E-02 -3.941181931E-04
 7.864754200E-01 5.194912106E-02 -4.166214785E-04
 7.864843607E-01 5.199592188E-02 -4.402015766E-04
 7.864938378E-01 5.204511434E-02 -4.648850008E-04
 7.865037322E-01 5.209682137E-02 -4.908034462E-04
 7.865141630E-01 5.215116590E-02 -5.179832224E-04
 7.865250707E-01 5.220828950E-02 -5.464814603E-04
 7.865366340E-01 5.226833373E-02 -5.763681256E-04
 7.865487337E-01 5.233144015E-02 -6.076992140E-04
 7.865614295E-01 5.239777640E-02 -6.405599997E-04
 7.865747809E-01 5.246749893E-02 -6.749861059E-04
 7.865888476E-01 5.254078656E-02 -7.111304440E-04
 7.866036296E-01 5.261781812E-02 -7.490320131E-04
 7.866191268E-01 5.269878358E-02 -7.887717220E-04
 7.866354585E-01 5.278389156E-02 -8.304273942E-04
 7.866526246E-01 5.287334695E-02 -8.740930934E-04
 7.866706848E-01 5.296737328E-02 -9.198694024E-04
 7.866896391E-01 5.306620896E-02 -9.678382194E-04
 7.867095470E-01 5.317009240E-02 -1.018123003E-03
 7.867304683E-01 5.327928439E-02 -1.070815022E-03
 7.867524624E-01 5.339406058E-02 -1.126022660E-03
 7.867755890E-01 5.351470038E-02 -1.183813671E-03
 7.867999077E-01 5.364150926E-02 -1.244337298E-03
 7.868254781E-01 5.377480015E-02 -1.307708095E-03
 7.868523598E-01 5.391490087E-02 -1.374085899E-03
 7.868806124E-01 5.406216532E-02 -1.443519839E-03
 7.869102955E-01 5.421695858E-02 -1.516168704E-03
 7.869414687E-01 5.437966064E-02 -1.592149609E-03
 7.869742513E-01 5.455068126E-02 -1.671527396E-03
 7.870087624E-01 5.473044515E-02 -1.754493685E-03
 7.870449424E-01 5.491939560E-02 -1.841176650E-03
 7.870830297E-01 5.511800572E-02 -1.931831823E-03
 7.871230841E-01 5.532677099E-02 -2.026362345E-03
 7.871651649E-01 5.554620549E-02 -2.125004772E-03
 7.872093916E-01 5.577685311E-02 -2.227867488E-03
 7.872558832E-01 5.601929501E-02 -2.334932331E-03
 7.873047590E-01 5.627413094E-02 -2.446444239E-03
 7.873561382E-01 5.654199421E-02 -2.562580630E-03
 7.874100804E-01 5.682354793E-02 -2.683442784E-03
 7.874668837E-01 5.711949244E-02 -2.808941063E-03
 7.875264883E-01 5.743056908E-02 -2.939260099E-03
 7.875891924E-01 5.775754526E-02 -3.074399894E-03
 7.876551151E-01 5.810124055E-02 -3.214105498E-03
 7.877243757E-01 5.846250057E-02 -3.358657937E-03
 7.877972126E-01 5.884223059E-02 -3.508090274E-03
 7.878737450E-01 5.924136937E-02 -3.662247909E-03
 7.879542112E-01 5.966091156E-02 -3.821037244E-03
 7.880387306E-01 6.010190398E-02 -3.984367941E-03
 7.881276608E-01 6.056543812E-02 -4.151870962E-03
 7.882210612E-01 6.105266884E-02 -4.322655499E-03
 7.883192897E-01 6.156480312E-02 -4.498504102E-03
 7.884225249E-01 6.210312247E-02 -4.685109481E-03
 7.885310054E-01 6.266895682E-02 -4.866957199E-03
 7.886450291E-01 6.326371431E-02 -5.038114730E-03
 7.887649536E-01 6.388888508E-02 -5.215773359E-03
 7.888909578E-01 6.454600394E-02 -5.400176160E-03
 7.890233994E-01 6.523671746E-02 -5.589656532E-03
 7.891626358E-01 6.596274674E-02 -5.782728549E-03
 7.893089652E-01 6.672587991E-02 -5.977471359E-03
 7.894627452E-01 6.752803177E-02 -6.171658169E-03
 7.896244526E-01 6.837118417E-02 -6.362880580E-03
 7.897943854E-01 6.925744563E-02 -6.548501551E-03
 7.899730206E-01 7.018900663E-02 -6.723769940E-03
 7.901607752E-01 7.116819173E-02 -6.884090137E-03
 7.903581262E-01 7.219742984E-02 -7.027745713E-03
 7.905656099E-01 7.327928394E-02 -7.149285171E-03
 7.907836437E-01 7.441644371E-02 -7.241231855E-03
 7.910128832E-01 7.561173290E-02 -7.293749135E-03
 7.912538052E-01 7.686812431E-02 -7.290463895E-03
 7.915070057E-01 7.818873972E-02 -7.214726880E-03
 7.917732000E-01 7.957687229E-02 -7.052839268E-03
 7.920529842E-01 8.103596419E-02 -6.818683352E-03
 7.923470736E-01 8.256964386E-02 -6.446569227E-03
 7.926562428E-01 8.418171853E-02 -5.838920828E-03
 7.929811478E-01 8.587621152E-02 -4.988170229E-03
 7.933226824E-01 8.765732497E-02 -4.070730880E-03
 7.936816812E-01 8.952948451E-02 -3.080903320E-03
 7.940590382E-01 9.149735421E-02 -2.123924438E-03
 7.944557071E-01 9.356581420E-02 -1.311529195E-03
 7.948725820E-01 9.574002028E-02 -7.052239380E-04
 7.953108549E-01 9.802536666E-02 -3.129598626E-04
 7.957714796E-01 1.004275456E-01 -1.065390461E-04
 7.962556481E-01 1.029525176E-01 -2.701844642E-05
 7.967645526E-01 1.056065708E-01 -9.415350178E-06
 7.972995043E-01 1.083962992E-01 -5.538758160E-06
 7.978618145E-01 1.113286316E-01 -3.837581971E-06
 7.984528542E-01 1.144108698E-01 -2.548737029E-06
 7.990741134E-01 1.176506728E-01 -1.438112804E-06
 7.997271419E-01 1.210560948E-01 -6.979453246E-07
 8.004134893E-01 1.246355996E-01 -3.060602864E-07
 8.011350036E-01 1.283980906E-01 -1.354650294E-07
 8.018933535E-01 1.323529184E-01 -6.387636375E-08
 8.026905060E-01 1.365099102E-01 -2.814189237E-08
 8.035283685E-01 1.408794224E-01 -1.164956664E-08
 8.044090867E-01 1.454722881E-01 -4.697456646E-09
 8.053348064E-01 1.502999514E-01 -1.870181343E-09
 8.063079119E-01 1.553743929E-01 -7.678419567E-10
 8.073306680E-01 1.607082486E-01 -3.969628792E-10
 8.084057570E-01 1.663147658E-01 -2.629285678E-10
 8.095358014E-01 1.722078919E-01 -2.039711594E-10
 8.107236624E-01 1.784022748E-01 -1.827015622E-10
 8.119722009E-01 1.849133074E-01 -1.759692253E-10
 8.132845163E-01 1.917572021E-01 -1.740425581E-10
 8.146640062E-01 1.989509314E-01 -1.733966304E-10
 8.161139488E-01 2.065124214E-01 -1.726618709E-10
 8.176380396E-01 2.144604474E-01 -1.713438003E-10
 8.192400336E-01 2.228147835E-01 -1.692115059E-10
 8.209239244E-01 2.315961719E-01 -1.662173454E-10
 8.226938844E-01 2.408264875E-01 -1.622255524E-10
 8.245543242E-01 2.505286336E-01 -1.572758312E-10
 8.265098929E-01 2.607267797E-01 -1.510948033E-10
 8.285654187E-01 2.714462280E-01 -1.435905977E-10
 8.307260275E-01 2.827136815E-01 -1.346675965E-10
 8.329970837E-01 2.945571244E-01 -1.244808423E-10
 8.353842497E-01 3.070059717E-01 -1.129673646E-10
 8.378934264E-01 3.200912178E-01 -1.001009067E-10
 8.405308723E-01 3.338454068E-01 -8.580289257E-11
ZONE T="x=.8418"
 8.417999744E-01 3.950987384E-02 0.000000000E+00
 8.418003917E-01 3.951183334E-02 2.113985697E-14
 8.418008089E-01 3.951379657E-02 6.153269490E-14
 8.418012261E-01 3.951577097E-02 4.902793124E-13
 8.418016434E-01 3.951775655E-02 1.209276386E-12
 8.418020606E-01 3.951976448E-02 4.536226429E-12
 8.418024778E-01 3.952179849E-02 9.276161436E-12
 8.418028951E-01 3.952385858E-02 2.441555985E-11
 8.418033123E-01 3.952595592E-02 4.321497674E-11
 8.418037295E-01 3.952809423E-02 9.349723773E-11
 8.418042064E-01 3.953027725E-02 1.532458604E-10
 8.418046832E-01 3.953250870E-02 2.865682691E-10
 8.418051600E-01 3.953479603E-02 4.620453464E-10
 8.418056369E-01 3.953715041E-02 7.499612598E-10
 8.418061137E-01 3.953956813E-02 1.182675513E-09