VARIABLES = "X","Y","mu_t"
ZONE T="CFL3D, SA-QCR2000, x=0.75"
 7.500000000E-01 5.000000075E-02 3.100852482E-04
 7.500000000E-01 5.000049621E-02 3.879276628E-04
 7.500000000E-01 5.000099167E-02 4.795590357E-04
 7.500000000E-01 5.000148714E-02 5.860087695E-04
 7.500000000E-01 5.000198260E-02 7.092094165E-04
 7.500000000E-01 5.000247806E-02 8.508391329E-04
 7.500000000E-01 5.000297725E-02 1.013923669E-03
 7.500000000E-01 5.000347644E-02 1.198324258E-03
 7.500000000E-01 5.000397563E-02 1.411411795E-03
 7.500000000E-01 5.000447854E-02 1.650877646E-03
 7.500000000E-01 5.000498146E-02 1.920835231E-03
 7.500000000E-01 5.000548810E-02 2.224403899E-03
 7.500000000E-01 5.000599846E-02 2.563629998E-03
 7.500000000E-01 5.000650883E-02 2.939572791E-03
 7.500000000E-01 5.000702292E-02 3.358526388E-03
 7.500000000E-01 5.000753701E-02 3.818706376E-03
 7.500000000E-01 5.000805855E-02 4.331700969E-03
 7.500000000E-01 5.000858009E-02 4.904228263E-03
 7.500000000E-01 5.000910535E-02 5.531267729E-03
 7.500000000E-01 5.000963807E-02 6.226742174E-03
 7.500000000E-01 5.001017079E-02 6.985403597E-03
 7.500000000E-01 5.001070723E-02 7.813361473E-03
 7.500000000E-01 5.001125112E-02 8.721066639E-03
 7.500000000E-01 5.001179874E-02 9.715463035E-03
 7.500000000E-01 5.001235008E-02 1.080773398E-02
 7.500000000E-01 5.001290515E-02 1.199841313E-02
 7.500000000E-01 5.001346767E-02 1.329579670E-02
 7.500000000E-01 5.001403391E-02 1.470074803E-02
 7.500000000E-01 5.001460761E-02 1.623320021E-02
 7.500000000E-01 5.001518503E-02 1.789071783E-02
 7.500000000E-01 5.001576990E-02 1.969593018E-02
 7.500000000E-01 5.001636222E-02 2.167086676E-02
 7.500000000E-01 5.001696199E-02 2.380852588E-02
 7.500000000E-01 5.001756549E-02 2.611211687E-02
 7.500000000E-01 5.001818016E-02 2.862160653E-02
 7.500000000E-01 5.001879856E-02 3.131349757E-02
 7.500000000E-01 5.001942441E-02 3.421675041E-02
 7.500000000E-01 5.002006143E-02 3.741041943E-02
 7.500000000E-01 5.002070591E-02 4.083964229E-02
 7.500000000E-01 5.002135783E-02 4.453974962E-02
 7.500000000E-01 5.002201721E-02 4.852027819E-02
 7.500000000E-01 5.002268776E-02 5.280768499E-02
 7.500000000E-01 5.002336577E-02 5.739738792E-02
 7.500000000E-01 5.002405494E-02 6.243022904E-02
 7.500000000E-01 5.002475157E-02 6.781277061E-02
 7.500000000E-01 5.002545938E-02 7.361229509E-02
 7.500000000E-01 5.002617836E-02 7.985259593E-02
 7.500000000E-01 5.002690852E-02 8.656216413E-02
 7.500000000E-01 5.002764612E-02 9.374365956E-02
 7.500000000E-01 5.002839863E-02 1.014946923E-01
 7.500000000E-01 5.002916232E-02 1.099011898E-01
 7.500000000E-01 5.002993718E-02 1.188905314E-01
 7.500000000E-01 5.003072321E-02 1.285119504E-01
 7.500000000E-01 5.003152043E-02 1.387972087E-01
 7.500000000E-01 5.003233254E-02 1.498361379E-01
 7.500000000E-01 5.003315955E-02 1.617337167E-01
 7.500000000E-01 5.003399774E-02 1.744760424E-01
 7.500000000E-01 5.003485084E-02 1.881875545E-01
 7.500000000E-01 5.003571883E-02 2.028650045E-01
 7.500000000E-01 5.003659800E-02 2.185209990E-01
 7.500000000E-01 5.003749579E-02 2.353295684E-01
 7.500000000E-01 5.003840849E-02 2.532395720E-01
 7.500000000E-01 5.003933236E-02 2.722731829E-01
 7.500000000E-01 5.004027858E-02 2.929063439E-01
 7.500000000E-01 5.004123598E-02 3.148586750E-01
 7.500000000E-01 5.004221201E-02 3.382898867E-01
 7.500000000E-01 5.004320666E-02 3.633179367E-01
 7.500000000E-01 5.004421622E-02 3.898903430E-01
 7.500000000E-01 5.004524812E-02 4.182547331E-01
 7.500000000E-01 5.004629493E-02 4.483971000E-01
 7.500000000E-01 5.004736036E-02 4.805276394E-01
 7.500000000E-01 5.004844442E-02 5.148427486E-01
 7.500000000E-01 5.004955083E-02 5.514079332E-01
 7.500000000E-01 5.005067587E-02 5.901368260E-01
 7.500000000E-01 5.005182326E-02 6.312981844E-01
 7.500000000E-01 5.005298927E-02 6.748613119E-01
 7.500000000E-01 5.005417764E-02 7.210134268E-01
 7.500000000E-01 5.005538836E-02 7.698670626E-01
 7.500000000E-01 5.005662143E-02 8.215565681E-01
 7.500000000E-01 5.005787686E-02 8.764628172E-01
 7.500000000E-01 5.005915835E-02 9.346030354E-01
 7.500000000E-01 5.006046221E-02 9.959347248E-01
 7.500000000E-01 5.006178841E-02 1.060369849E+00
 7.500000000E-01 5.006314442E-02 1.128537774E+00
 7.500000000E-01 5.006452277E-02 1.200197577E+00
 7.500000000E-01 5.006592721E-02 1.275422573E+00
 7.500000000E-01 5.006736144E-02 1.354611754E+00
 7.500000000E-01 5.006882176E-02 1.437533975E+00
 7.500000000E-01 5.007030815E-02 1.524864554E+00
 7.500000000E-01 5.007182434E-02 1.616229057E+00
 7.500000000E-01 5.007337034E-02 1.711965561E+00
 7.500000000E-01 5.007494614E-02 1.812054276E+00
 7.500000000E-01 5.007655174E-02 1.916532040E+00
 7.500000000E-01 5.007818714E-02 2.025354147E+00
 7.500000000E-01 5.007985607E-02 2.138827562E+00
 7.500000000E-01 5.008155853E-02 2.257062912E+00
 7.500000000E-01 5.008329079E-02 2.379698992E+00
 7.500000000E-01 5.008506030E-02 2.507275343E+00
 7.500000000E-01 5.008686334E-02 2.639356852E+00
 7.500000000E-01 5.008869991E-02 2.776617765E+00
 7.500000000E-01 5.009057745E-02 2.918740273E+00
 7.500000000E-01 5.009248853E-02 3.065557957E+00
 7.500000000E-01 5.009443685E-02 3.217186689E+00
 7.500000000E-01 5.009642243E-02 3.373380423E+00
 7.500000000E-01 5.009844899E-02 3.534485817E+00
 7.500000000E-01 5.010051653E-02 3.700425625E+00
 7.500000000E-01 5.010262504E-02 3.871034145E+00
 7.500000000E-01 5.010477081E-02 4.045948982E+00
 7.500000000E-01 5.010696501E-02 4.225947380E+00
 7.500000000E-01 5.010920018E-02 4.410158157E+00
 7.500000000E-01 5.011148006E-02 4.598808289E+00
 7.500000000E-01 5.011380464E-02 4.791816235E+00
 7.500000000E-01 5.011617392E-02 4.989111900E+00
 7.500000000E-01 5.011859536E-02 5.190932274E+00
 7.500000000E-01 5.012106150E-02 5.396811485E+00
 7.500000000E-01 5.012357607E-02 5.606497765E+00
 7.500000000E-01 5.012614280E-02 5.820142746E+00
 7.500000000E-01 5.012876168E-02 6.037847996E+00
 7.500000000E-01 5.013142899E-02 6.259099007E+00
 7.500000000E-01 5.013415590E-02 6.484472752E+00
 7.500000000E-01 5.013693124E-02 6.712986946E+00
 7.500000000E-01 5.013976619E-02 6.945347309E+00
 7.500000000E-01 5.014265701E-02 7.180977345E+00
 7.500000000E-01 5.014560372E-02 7.419956684E+00
 7.500000000E-01 5.014861375E-02 7.662655354E+00
 7.500000000E-01 5.015167966E-02 7.908070564E+00
 7.500000000E-01 5.015481263E-02 8.157190323E+00
 7.500000000E-01 5.015800521E-02 8.409132004E+00
 7.500000000E-01 5.016126111E-02 8.664120674E+00
 7.500000000E-01 5.016458407E-02 8.922128677E+00
 7.500000000E-01 5.016797408E-02 9.183285713E+00
 7.500000000E-01 5.017143115E-02 9.447129250E+00
 7.500000000E-01 5.017495900E-02 9.713906288E+00
 7.500000000E-01 5.017855763E-02 9.983586311E+00
 7.500000000E-01 5.018223077E-02 1.025642014E+01
 7.500000000E-01 5.018597469E-02 1.053191090E+01
 7.500000000E-01 5.018979684E-02 1.081053829E+01
 7.500000000E-01 5.019369721E-02 1.109194851E+01
 7.500000000E-01 5.019767210E-02 1.137603569E+01
 7.500000000E-01 5.020173267E-02 1.166347694E+01
 7.500000000E-01 5.020587146E-02 1.195341873E+01
 7.500000000E-01 5.021009594E-02 1.224641132E+01
 7.500000000E-01 5.021440238E-02 1.254221439E+01
 7.500000000E-01 5.021880195E-02 1.284138012E+01
 7.500000000E-01 5.022328719E-02 1.314328480E+01
 7.500000000E-01 5.022786185E-02 1.344820690E+01
 7.500000000E-01 5.023252964E-02 1.375627613E+01
 7.500000000E-01 5.023729429E-02 1.406744862E+01
 7.500000000E-01 5.024215579E-02 1.438175488E+01
 7.500000000E-01 5.024711415E-02 1.469922733E+01
 7.500000000E-01 5.025217310E-02 1.502006435E+01
 7.500000000E-01 5.025733262E-02 1.534393215E+01
 7.500000000E-01 5.026260018E-02 1.567133522E+01
 7.500000000E-01 5.026797205E-02 1.600205231E+01
 7.500000000E-01 5.027345568E-02 1.633617401E+01
 7.500000000E-01 5.027904734E-02 1.667350197E+01
 7.500000000E-01 5.028475448E-02 1.701467133E+01
 7.500000000E-01 5.029057711E-02 1.735917854E+01
 7.500000000E-01 5.029651895E-02 1.770728302E+01
 7.500000000E-01 5.030258000E-02 1.805902100E+01
 7.500000000E-01 5.030876398E-02 1.841446686E+01
 7.500000000E-01 5.031507462E-02 1.877367210E+01
 7.500000000E-01 5.032151192E-02 1.913665009E+01
 7.500000000E-01 5.032807961E-02 1.950332069E+01
 7.500000000E-01 5.033478141E-02 1.987401199E+01
 7.500000000E-01 5.034162104E-02 2.024870491E+01
 7.500000000E-01 5.034859851E-02 2.062719536E+01
 7.500000000E-01 5.035571754E-02 2.100980377E+01
 7.500000000E-01 5.036298186E-02 2.139642143E+01
 7.500000000E-01 5.037039518E-02 2.178709793E+01
 7.500000000E-01 5.037795752E-02 2.218185616E+01
 7.500000000E-01 5.038567260E-02 2.258069229E+01
 7.500000000E-01 5.039354786E-02 2.298386955E+01
 7.500000000E-01 5.040157959E-02 2.339100838E+01
 7.500000000E-01 5.040977523E-02 2.380235481E+01
 7.500000000E-01 5.041813850E-02 2.421801567E+01
 7.500000000E-01 5.042667314E-02 2.463801575E+01
 7.500000000E-01 5.043537915E-02 2.506219482E+01
 7.500000000E-01 5.044426396E-02 2.549075699E+01
 7.500000000E-01 5.045332760E-02 2.592353630E+01
 7.500000000E-01 5.046257749E-02 2.636072922E+01
 7.500000000E-01 5.047201365E-02 2.680216980E+01
 7.500000000E-01 5.048164353E-02 2.724804306E+01
 7.500000000E-01 5.049146712E-02 2.769812393E+01
 7.500000000E-01 5.050149187E-02 2.815259552E+01
 7.500000000E-01 5.051172152E-02 2.861150932E+01
 7.500000000E-01 5.052215979E-02 2.907468987E+01
 7.500000000E-01 5.053281039E-02 2.954231834E+01
 7.500000000E-01 5.054367334E-02 3.001398087E+01
 7.500000000E-01 5.055476353E-02 3.049029160E+01
 7.500000000E-01 5.056607723E-02 3.097072601E+01
 7.500000000E-01 5.057761818E-02 3.145534897E+01
 7.500000000E-01 5.058939755E-02 3.194433784E+01
 7.500000000E-01 5.060141534E-02 3.243747711E+01
 7.500000000E-01 5.061367899E-02 3.293483734E+01
 7.500000000E-01 5.062619224E-02 3.343654251E+01
 7.500000000E-01 5.063895881E-02 3.394219971E+01
 7.500000000E-01 5.065198615E-02 3.445194626E+01
 7.500000000E-01 5.066527799E-02 3.496581650E+01
 7.500000000E-01 5.067883804E-02 3.548353195E+01
 7.500000000E-01 5.069267750E-02 3.600532532E+01
 7.500000000E-01 5.070680007E-02 3.653113174E+01
 7.500000000E-01 5.072120577E-02 3.706062317E+01
 7.500000000E-01 5.073590949E-02 3.759403992E+01
 7.500000000E-01 5.075091124E-02 3.813127899E+01
 7.500000000E-01 5.076621473E-02 3.867191696E+01
 7.500000000E-01 5.078183487E-02 3.921639252E+01
 7.500000000E-01 5.079777166E-02 3.976426697E+01
 7.500000000E-01 5.081402883E-02 4.031556702E+01
 7.500000000E-01 5.083062127E-02 4.087035751E+01
 7.500000000E-01 5.084755272E-02 4.142840576E+01
 7.500000000E-01 5.086482689E-02 4.198958588E+01
 7.500000000E-01 5.088245124E-02 4.255374908E+01
 7.500000000E-01 5.090043694E-02 4.312104034E+01
 7.500000000E-01 5.091878772E-02 4.369124222E+01
 7.500000000E-01 5.093751475E-02 4.426425934E+01
 7.500000000E-01 5.095662177E-02 4.483997345E+01
 7.500000000E-01 5.097611621E-02 4.541828156E+01
 7.500000000E-01 5.099600926E-02 4.599897766E+01
 7.500000000E-01 5.101630464E-02 4.658201981E+01
 7.500000000E-01 5.103701726E-02 4.716741562E+01
 7.500000000E-01 5.105815083E-02 4.775482941E+01
 7.500000000E-01 5.107971281E-02 4.834421158E+01
 7.500000000E-01 5.110171810E-02 4.893554688E+01
 7.500000000E-01 5.112416670E-02 4.952840424E+01
 7.500000000E-01 5.114707351E-02 5.012281799E+01
 7.500000000E-01 5.117044970E-02 5.071865845E+01
 7.500000000E-01 5.119429901E-02 5.131574249E+01
 7.500000000E-01 5.121863633E-02 5.191387558E+01
 7.500000000E-01 5.124346912E-02 5.251293182E+01
 7.500000000E-01 5.126880854E-02 5.311284637E+01
 7.500000000E-01 5.129466206E-02 5.371322250E+01
 7.500000000E-01 5.132104084E-02 5.431393433E+01
 7.500000000E-01 5.134795979E-02 5.491497421E+01
 7.500000000E-01 5.137542635E-02 5.551601410E+01
 7.500000000E-01 5.140345171E-02 5.611685562E+01
 7.500000000E-01 5.143205076E-02 5.671738434E+01
 7.500000000E-01 5.146122724E-02 5.731729889E+01
 7.500000000E-01 5.149100348E-02 5.791653061E+01
 7.500000000E-01 5.152138323E-02 5.851473999E+01
 7.500000000E-01 5.155238137E-02 5.911174774E+01
 7.500000000E-01 5.158401281E-02 5.970734406E+01
 7.500000000E-01 5.161628872E-02 6.030133057E+01
 7.500000000E-01 5.164922029E-02 6.089345169E+01
 7.500000000E-01 5.168282241E-02 6.148346710E+01
 7.500000000E-01 5.171710998E-02 6.207114410E+01
 7.500000000E-01 5.175209790E-02 6.265627670E+01
 7.500000000E-01 5.178779736E-02 6.323852921E+01
 7.500000000E-01 5.182422325E-02 6.381771469E+01
 7.500000000E-01 5.186139047E-02 6.439351654E+01
 7.500000000E-01 5.189931393E-02 6.496568298E+01
 7.500000000E-01 5.193801224E-02 6.553396606E+01
 7.500000000E-01 5.197750032E-02 6.609806061E+01
 7.500000000E-01 5.201778933E-02 6.665767670E+01
 7.500000000E-01 5.205890164E-02 6.721254730E+01
 7.500000000E-01 5.210085213E-02 6.776232147E+01
 7.500000000E-01 5.214365572E-02 6.830668640E+01
 7.500000000E-01 5.218733102E-02 6.884536743E+01
 7.500000000E-01 5.223189294E-02 6.937795258E+01
 7.500000000E-01 5.227736756E-02 6.990420532E+01
 7.500000000E-01 5.232376605E-02 7.042369843E+01
 7.500000000E-01 5.237111077E-02 7.093612671E+01
 7.500000000E-01 5.241942033E-02 7.144107819E+01
 7.500000000E-01 5.246871337E-02 7.193815613E+01
 7.500000000E-01 5.251901224E-02 7.242697906E+01
 7.500000000E-01 5.257033557E-02 7.290715027E+01
 7.500000000E-01 5.262270197E-02 7.337821198E+01
 7.500000000E-01 5.267613754E-02 7.383975220E+01
 7.500000000E-01 5.273066089E-02 7.429128265E+01
 7.500000000E-01 5.278629437E-02 7.473232269E+01
 7.500000000E-01 5.284306034E-02 7.516236877E+01
 7.500000000E-01 5.290098488E-02 7.558091736E+01
 7.500000000E-01 5.296008661E-02 7.598739624E+01
 7.500000000E-01 5.302039534E-02 7.638127136E+01
 7.500000000E-01 5.308193341E-02 7.676191711E+01
 7.500000000E-01 5.314472318E-02 7.712870789E+01
 7.500000000E-01 5.320879072E-02 7.748099518E+01
 7.500000000E-01 5.327416584E-02 7.781808472E+01
 7.500000000E-01 5.334087461E-02 7.813926697E+01
 7.500000000E-01 5.340893939E-02 7.844375610E+01
 7.500000000E-01 5.347838998E-02 7.873076630E+01
 7.500000000E-01 5.354925618E-02 7.899945068E+01
 7.500000000E-01 5.362156779E-02 7.924893188E+01
 7.500000000E-01 5.369535089E-02 7.947827148E+01
 7.500000000E-01 5.377063900E-02 7.968649292E+01
 7.500000000E-01 5.384745821E-02 7.987254333E+01
 7.500000000E-01 5.392584577E-02 8.003534698E+01
 7.500000000E-01 5.400582775E-02 8.017375946E+01
 7.500000000E-01 5.408744141E-02 8.028656006E+01
 7.500000000E-01 5.417071283E-02 8.037246704E+01
 7.500000000E-01 5.425568670E-02 8.043016052E+01
 7.500000000E-01 5.434238911E-02 8.045820618E+01
 7.500000000E-01 5.443085730E-02 8.045513153E+01
 7.500000000E-01 5.452112854E-02 8.041938019E+01
 7.500000000E-01 5.461324006E-02 8.034929657E+01
 7.500000000E-01 5.470722541E-02 8.024317169E+01
 7.500000000E-01 5.480312556E-02 8.009918213E+01
 7.500000000E-01 5.490098149E-02 7.991544342E+01
 7.500000000E-01 5.500083044E-02 7.968996429E+01
 7.500000000E-01 5.510271341E-02 7.942067719E+01
 7.500000000E-01 5.520667136E-02 7.910540009E+01
 7.500000000E-01 5.531274900E-02 7.874185944E+01
 7.500000000E-01 5.542098731E-02 7.832769775E+01
 7.500000000E-01 5.553143099E-02 7.786044312E+01
 7.500000000E-01 5.564412102E-02 7.733753967E+01
 7.500000000E-01 5.575910956E-02 7.675629425E+01
 7.500000000E-01 5.587644130E-02 7.611392975E+01
 7.500000000E-01 5.599616468E-02 7.540759277E+01
 7.500000000E-01 5.611832440E-02 7.463431549E+01
 7.500000000E-01 5.624297261E-02 7.379101562E+01
 7.500000000E-01 5.637016147E-02 7.287451935E+01
 7.500000000E-01 5.649994314E-02 7.188155365E+01
 7.500000000E-01 5.663236603E-02 7.080879211E+01
 7.500000000E-01 5.676748976E-02 6.965273285E+01
 7.500000000E-01 5.690536276E-02 6.840996552E+01
 7.500000000E-01 5.704604834E-02 6.707679749E+01
 7.500000000E-01 5.718959868E-02 6.564965057E+01
 7.500000000E-01 5.733607337E-02 6.412480164E+01
 7.500000000E-01 5.748553202E-02 6.249854279E+01
 7.500000000E-01 5.763803422E-02 6.076713943E+01
 7.500000000E-01 5.779364333E-02 5.892684937E+01
 7.500000000E-01 5.795242637E-02 5.697395325E+01
 7.500000000E-01 5.811443925E-02 5.490488052E+01
 7.500000000E-01 5.827975646E-02 5.271602631E+01
 7.500000000E-01 5.844844133E-02 5.040407944E+01
 7.500000000E-01 5.862056091E-02 4.796587372E+01
 7.500000000E-01 5.879618600E-02 4.539850616E+01
 7.500000000E-01 5.897539482E-02 4.269929886E+01
 7.500000000E-01 5.915825069E-02 3.986625290E+01
 7.500000000E-01 5.934483185E-02 3.689758682E+01
 7.500000000E-01 5.953521281E-02 3.379206467E+01
 7.500000000E-01 5.972947553E-02 3.054874802E+01
 7.500000000E-01 5.992769450E-02 2.716665840E+01
 7.500000000E-01 6.012995169E-02 2.364338112E+01
 7.500000000E-01 6.033632904E-02 1.997258568E+01
 7.500000000E-01 6.054691225E-02 1.613967133E+01
 7.500000000E-01 6.076178327E-02 1.212641621E+01
 7.500000000E-01 6.098103523E-02 8.003537178E+00
 7.500000000E-01 6.120475009E-02 4.235473156E+00
 7.500000000E-01 6.143302470E-02 1.696701646E+00
 7.500000000E-01 6.166595221E-02 6.027213335E-01
 7.500000000E-01 6.190362200E-02 2.909089923E-01
 7.500000000E-01 6.214613467E-02 2.127755284E-01
 7.500000000E-01 6.239358708E-02 1.924443394E-01
 7.500000000E-01 6.264608353E-02 1.872737706E-01
 7.500000000E-01 6.290372461E-02 1.863083541E-01
 7.500000000E-01 6.316661090E-02 1.865181178E-01
 7.500000000E-01 6.343485415E-02 1.870437711E-01
 7.500000000E-01 6.370855868E-02 1.876414269E-01
 7.500000000E-01 6.398784369E-02 1.882428825E-01
 7.500000000E-01 6.427282095E-02 1.888297051E-01
 7.500000000E-01 6.456360221E-02 1.893974543E-01
 7.500000000E-01 6.486030668E-02 1.899455488E-01
 7.500000000E-01 6.516305357E-02 1.904743463E-01
 7.500000000E-01 6.547196954E-02 1.909845024E-01
 7.500000000E-01 6.578718126E-02 1.914766729E-01
 7.500000000E-01 6.610881537E-02 1.919515431E-01
 7.500000000E-01 6.643699855E-02 1.924097240E-01
 7.500000000E-01 6.677187234E-02 1.928518862E-01
 7.500000000E-01 6.711356342E-02 1.932786256E-01
 7.500000000E-01 6.746221334E-02 1.936904937E-01
 7.500000000E-01 6.781797111E-02 1.940881014E-01
 7.500000000E-01 6.818097830E-02 1.944719851E-01
 7.500000000E-01 6.855138391E-02 1.948426664E-01
 7.500000000E-01 6.892932951E-02 1.952006519E-01
 7.500000000E-01 6.931497902E-02 1.955464333E-01
 7.500000000E-01 6.970848143E-02 1.958804876E-01
 7.500000000E-01 7.011000067E-02 1.962032616E-01
 7.500000000E-01 7.051970065E-02 1.965152174E-01
 7.500000000E-01 7.093774527E-02 1.968167722E-01
 7.500000000E-01 7.136431336E-02 1.971083283E-01
 7.500000000E-01 7.179956883E-02 1.973902881E-01
 7.500000000E-01 7.224369049E-02 1.976630241E-01
 7.500000000E-01 7.269686460E-02 1.979268938E-01
 7.500000000E-01 7.315926254E-02 1.981822699E-01
 7.500000000E-01 7.363108546E-02 1.984294951E-01
 7.500000000E-01 7.411251962E-02 1.986688823E-01
 7.500000000E-01 7.460376620E-02 1.989007592E-01
 7.500000000E-01 7.510501891E-02 1.991254091E-01
 7.500000000E-01 7.561648637E-02 1.993431449E-01
 7.500000000E-01 7.613836974E-02 1.995542347E-01
 7.500000000E-01 7.667088509E-02 1.997589618E-01
 7.500000000E-01 7.721424848E-02 1.999575645E-01
 7.500000000E-01 7.776868343E-02 2.001503110E-01
 7.500000000E-01 7.833441347E-02 2.003374398E-01
 7.500000000E-01 7.891167700E-02 2.005191743E-01
 7.500000000E-01 7.950069010E-02 2.006957382E-01
 7.500000000E-01 8.010170609E-02 2.008673549E-01
 7.500000000E-01 8.071497083E-02 2.010342181E-01
 7.500000000E-01 8.134072274E-02 2.011965364E-01
 7.500000000E-01 8.197923005E-02 2.013544887E-01
 7.500000000E-01 8.263073862E-02 2.015082538E-01
 7.500000000E-01 8.329552412E-02 2.016580254E-01
 7.500000000E-01 8.397385478E-02 2.018039525E-01
 7.500000000E-01 8.466600627E-02 2.019462138E-01
 7.500000000E-01 8.537225425E-02 2.020849437E-01
 7.500000000E-01 8.609288931E-02 2.022203058E-01
 7.500000000E-01 8.682820946E-02 2.023524195E-01
 7.500000000E-01 8.757851273E-02 2.024814636E-01
 7.500000000E-01 8.834409714E-02 2.026075423E-01
 7.500000000E-01 8.912528306E-02 2.027307749E-01
 7.500000000E-01 8.992238343E-02 2.028512955E-01
 7.500000000E-01 9.073571861E-02 2.029692084E-01
 7.500000000E-01 9.156563133E-02 2.030846328E-01
 7.500000000E-01 9.241244197E-02 2.031976581E-01
 7.500000000E-01 9.327650815E-02 2.033084184E-01
 7.500000000E-01 9.415818006E-02 2.034169734E-01
 7.500000000E-01 9.505781531E-02 2.035234421E-01
 7.500000000E-01 9.597577900E-02 2.036278993E-01
 7.500000000E-01 9.691244364E-02 2.037304342E-01
 7.500000000E-01 9.786818922E-02 2.038311362E-01
 7.500000000E-01 9.884340316E-02 2.039300650E-01
 7.500000000E-01 9.983849525E-02 2.040272951E-01
 7.500000000E-01 1.008538529E-01 2.041229159E-01
 7.500000000E-01 1.018898934E-01 2.042169720E-01
 7.500000000E-01 1.029470488E-01 2.043095529E-01
 7.500000000E-01 1.040257365E-01 2.044006884E-01
 7.500000000E-01 1.051264033E-01 2.044904530E-01
 7.500000000E-01 1.062494889E-01 2.045789063E-01
 7.500000000E-01 1.073954627E-01 2.046660930E-01
 7.500000000E-01 1.085647792E-01 2.047520578E-01
 7.500000000E-01 1.097579151E-01 2.048368603E-01
 7.500000000E-01 1.109753624E-01 2.049205303E-01
 7.500000000E-01 1.122176126E-01 2.050031275E-01
 7.500000000E-01 1.134851724E-01 2.050846815E-01
 7.500000000E-01 1.147785485E-01 2.051652223E-01
 7.500000000E-01 1.160982847E-01 2.052447945E-01
 7.500000000E-01 1.174449027E-01 2.053234279E-01
 7.500000000E-01 1.188189536E-01 2.054011673E-01
 7.500000000E-01 1.202210039E-01 2.054780275E-01
 7.500000000E-01 1.216516122E-01 2.055540383E-01
 7.500000000E-01 1.231113747E-01 2.056292295E-01
 7.500000000E-01 1.246008649E-01 2.057036310E-01
 7.500000000E-01 1.261207163E-01 2.057772577E-01
 7.500000000E-01 1.276715100E-01 2.058501095E-01
 7.500000000E-01 1.292539090E-01 2.059222460E-01
 7.500000000E-01 1.308685541E-01 2.059936672E-01
 7.500000000E-01 1.325160861E-01 2.060643882E-01
 7.500000000E-01 1.341971904E-01 2.061344236E-01
 7.500000000E-01 1.359125376E-01 2.062037885E-01
 7.500000000E-01 1.376628280E-01 2.062725127E-01
 7.500000000E-01 1.394487768E-01 2.063405663E-01
 7.500000000E-01 1.412711143E-01 2.064080089E-01
 7.500000000E-01 1.431305856E-01 2.064748257E-01
 7.500000000E-01 1.450279355E-01 2.065410167E-01
 7.500000000E-01 1.469639242E-01 2.066065967E-01
 7.500000000E-01 1.489393711E-01 2.066715807E-01
 7.500000000E-01 1.509550661E-01 2.067359835E-01
 7.500000000E-01 1.530118138E-01 2.067997903E-01
 7.500000000E-01 1.551104784E-01 2.068630010E-01
 7.500000000E-01 1.572518945E-01 2.069256455E-01
 7.500000000E-01 1.594369262E-01 2.069876939E-01
 7.500000000E-01 1.616664827E-01 2.070491761E-01
 7.500000000E-01 1.639414728E-01 2.071100920E-01
 7.500000000E-01 1.662627906E-01 2.071704119E-01
 7.500000000E-01 1.686314195E-01 2.072301805E-01
 7.500000000E-01 1.710482836E-01 2.072893679E-01
 7.500000000E-01 1.735143960E-01 2.073479742E-01
 7.500000000E-01 1.760307550E-01 2.074060142E-01
 7.500000000E-01 1.785983741E-01 2.074634731E-01
 7.500000000E-01 1.812183112E-01 2.075203508E-01
 7.500000000E-01 1.838916242E-01 2.075766623E-01
 7.500000000E-01 1.866193861E-01 2.076323777E-01
 7.500000000E-01 1.894027293E-01 2.076875120E-01
 7.500000000E-01 1.922427863E-01 2.077420652E-01
 7.500000000E-01 1.951406896E-01 2.077960372E-01
 7.500000000E-01 1.980976462E-01 2.078493983E-01
 7.500000000E-01 2.011148334E-01 2.079021633E-01
 7.500000000E-01 2.041934878E-01 2.079543471E-01
 7.500000000E-01 2.073348761E-01 2.080059201E-01
 7.500000000E-01 2.105402499E-01 2.080568820E-01
 7.500000000E-01 2.138109356E-01 2.081072479E-01
 7.500000000E-01 2.171482444E-01 2.081569880E-01
 7.500000000E-01 2.205535620E-01 2.082061172E-01
 7.500000000E-01 2.240282446E-01 2.082546204E-01
 7.500000000E-01 2.275737077E-01 2.083024979E-01
 7.500000000E-01 2.311914265E-01 2.083497643E-01
 7.500000000E-01 2.348828316E-01 2.083963901E-01
 7.500000000E-01 2.386494428E-01 2.084423900E-01
 7.500000000E-01 2.424927950E-01 2.084877640E-01
 7.500000000E-01 2.464144379E-01 2.085324824E-01
 7.500000000E-01 2.504159808E-01 2.085765749E-01
 7.500000000E-01 2.544990480E-01 2.086200118E-01
 7.500000000E-01 2.586653233E-01 2.086628228E-01
 7.500000000E-01 2.629164457E-01 2.087049782E-01
 7.500000000E-01 2.672542036E-01 2.087464929E-01
 7.500000000E-01 2.716802955E-01 2.087873518E-01
 7.500000000E-01 2.761965990E-01 2.088275552E-01
 7.500000000E-01 2.808049023E-01 2.088671178E-01
 7.500000000E-01 2.855070829E-01 2.089060247E-01
 7.500000000E-01 2.903050482E-01 2.089442909E-01
 7.500000000E-01 2.952007949E-01 2.089819014E-01
 7.500000000E-01 3.001962602E-01 2.090188563E-01
 7.500000000E-01 3.052935004E-01 2.090551704E-01
 7.500000000E-01 3.104945719E-01 2.090908289E-01
 7.500000000E-01 3.158016503E-01 2.091258317E-01
 7.500000000E-01 3.212168217E-01 2.091601938E-01
 7.500000000E-01 3.267422915E-01 2.091939151E-01
 7.500000000E-01 3.323803544E-01 2.092270106E-01
 7.500000000E-01 3.381333053E-01 2.092594504E-01
 7.500000000E-01 3.440034389E-01 2.092912495E-01
 7.500000000E-01 3.499931395E-01 2.093224227E-01
 7.500000000E-01 3.561049104E-01 2.093529701E-01
 7.500000000E-01 3.623411655E-01 2.093828917E-01
 7.500000000E-01 3.687044978E-01 2.094121873E-01
 7.500000000E-01 3.751974404E-01 2.094408721E-01
 7.500000000E-01 3.818227053E-01 2.094689459E-01
 7.500000000E-01 3.885829151E-01 2.094963938E-01
 7.500000000E-01 3.954808414E-01 2.095232606E-01
 7.500000000E-01 4.025193155E-01 2.095495164E-01
 7.500000000E-01 4.097011983E-01 2.095752060E-01
 7.500000000E-01 4.170293808E-01 2.096002996E-01
 7.500000000E-01 4.245068729E-01 2.096248120E-01
 7.500000000E-01 4.321366847E-01 2.096487433E-01
 7.500000000E-01 4.399219453E-01 2.096721232E-01
 7.500000000E-01 4.478658140E-01 2.096949369E-01
 7.500000000E-01 4.559715390E-01 2.097171992E-01
 7.500000000E-01 4.642423689E-01 2.097389251E-01
 7.500000000E-01 4.726817310E-01 2.097600996E-01
 7.500000000E-01 4.812930226E-01 2.097807676E-01
 7.500000000E-01 4.900797307E-01 2.098008990E-01
 7.500000000E-01 4.990454614E-01 2.098205239E-01
 7.500000000E-01 5.081938505E-01 2.098396271E-01
 7.500000000E-01 5.175286531E-01 2.098582536E-01
 7.500000000E-01 5.270535946E-01 2.098763734E-01
 7.500000000E-01 5.367726088E-01 2.098940313E-01
 7.500000000E-01 5.466895700E-01 2.099111974E-01
 7.500000000E-01 5.568086505E-01 2.099279165E-01
 7.500000000E-01 5.671338439E-01 2.099441737E-01
 7.500000000E-01 5.776693821E-01 2.099599689E-01
 7.500000000E-01 5.884196162E-01 2.099753469E-01
 7.500000000E-01 5.993887782E-01 2.099902928E-01
 7.500000000E-01 6.105814576E-01 2.100048065E-01
 7.500000000E-01 6.220021844E-01 2.100189030E-01
 7.500000000E-01 6.336556077E-01 2.100326121E-01
 7.500000000E-01 6.455463767E-01 2.100459188E-01
 7.500000000E-01 6.576794386E-01 2.100588381E-01
 7.500000000E-01 6.700596809E-01 2.100713849E-01
 7.500000000E-01 6.826921701E-01 2.100835592E-01
 7.500000000E-01 6.955819726E-01 2.100953609E-01
 7.500000000E-01 7.087343931E-01 2.101068050E-01
 7.500000000E-01 7.221547961E-01 2.101179212E-01
 7.500000000E-01 7.358485460E-01 2.101286948E-01
 7.500000000E-01 7.498213649E-01 2.101391405E-01
 7.500000000E-01 7.640787959E-01 2.101492584E-01
 7.500000000E-01 7.786266804E-01 2.101590782E-01
 7.500000000E-01 7.934709787E-01 2.101685852E-01
 7.500000000E-01 8.086177111E-01 2.101777941E-01
 7.500000000E-01 8.240730166E-01 2.101867199E-01
 7.500000000E-01 8.398432136E-01 2.101953626E-01
 7.500000000E-01 8.559346199E-01 2.102037221E-01
 7.500000000E-01 8.723539114E-01 2.102118284E-01
 7.500000000E-01 8.891077042E-01 2.102196664E-01
 7.500000000E-01 9.062028527E-01 2.102272511E-01
 7.500000000E-01 9.236462712E-01 2.102345973E-01
 7.500000000E-01 9.414450526E-01 2.102417052E-01
 7.500000000E-01 9.596064091E-01 2.102485746E-01
 7.500000000E-01 9.781377912E-01 2.102552205E-01
 7.500000000E-01 9.970467687E-01 2.102616429E-01
 7.500000000E-01 1.016340852E+00 2.102678567E-01
 7.500000000E-01 1.036028147E+00 2.102738768E-01
 7.500000000E-01 1.056116462E+00 2.102796733E-01
 7.500000000E-01 1.076614022E+00 2.102852911E-01
 7.500000000E-01 1.097529292E+00 2.102907300E-01
 7.500000000E-01 1.118870497E+00 2.102959752E-01
 7.500000000E-01 1.140646577E+00 2.103010267E-01
 7.500000000E-01 1.162866354E+00 2.103059292E-01
 7.500000000E-01 1.185538769E+00 2.103106678E-01
 7.500000000E-01 1.208673000E+00 2.103152275E-01
 7.500000000E-01 1.232278705E+00 2.103196383E-01
 7.500000000E-01 1.256365180E+00 2.103239000E-01
 7.500000000E-01 1.280942440E+00 2.103280127E-01
 7.500000000E-01 1.306020379E+00 2.103319764E-01
 7.500000000E-01 1.331609249E+00 2.103358209E-01
 7.500000000E-01 1.357719421E+00 2.103395164E-01
 7.500000000E-01 1.384361625E+00 2.103430927E-01
 7.500000000E-01 1.411546588E+00 2.103465348E-01
 7.500000000E-01 1.439285278E+00 2.103498578E-01
 7.500000000E-01 1.467589140E+00 2.103530616E-01
 7.500000000E-01 1.496469736E+00 2.103561610E-01
 7.500000000E-01 1.525938630E+00 2.103591561E-01
 7.500000000E-01 1.556007862E+00 2.103620321E-01
 7.500000000E-01 1.586689711E+00 2.103648037E-01
 7.500000000E-01 1.617996693E+00 2.103674859E-01
 7.500000000E-01 1.649941444E+00 2.103700787E-01
 7.500000000E-01 1.682536960E+00 2.103725672E-01
 7.500000000E-01 1.715796590E+00 2.103749663E-01
 7.500000000E-01 1.749733806E+00 2.103772759E-01
 7.500000000E-01 1.784362435E+00 2.103795111E-01
 7.500000000E-01 1.819696665E+00 2.103816718E-01
 7.500000000E-01 1.855750561E+00 2.103837430E-01
 7.500000000E-01 1.892539144E+00 2.103857398E-01
 7.500000000E-01 1.930077076E+00 2.103876621E-01
 7.500000000E-01 1.968379855E+00 2.103895098E-01
 7.500000000E-01 2.007462978E+00 2.103912979E-01
 7.500000000E-01 2.047342300E+00 2.103930265E-01
 7.500000000E-01 2.088034153E+00 2.103946805E-01
 7.500000000E-01 2.129554987E+00 2.103962749E-01
 7.500000000E-01 2.171921730E+00 2.103978097E-01
 7.500000000E-01 2.215151548E+00 2.103992999E-01
 7.500000000E-01 2.259262085E+00 2.104007155E-01
 7.500000000E-01 2.304271460E+00 2.104020864E-01
 7.500000000E-01 2.350197554E+00 2.104033977E-01
 7.500000000E-01 2.397059441E+00 2.104046643E-01
 7.500000000E-01 2.444876194E+00 2.104058862E-01
 7.500000000E-01 2.493666887E+00 2.104070634E-01
 7.500000000E-01 2.543451548E+00 2.104081959E-01
 7.500000000E-01 2.594250679E+00 2.104092687E-01
 7.500000000E-01 2.646084547E+00 2.104103118E-01
 7.500000000E-01 2.698974609E+00 2.104113102E-01