TITLE     = "Case D (NASA-TM20210020762)"
VARIABLES = "x"
"Cp_wall"
"Ue_tilde"
"\\delta995"
"\\delta*"
"\\theta"
"Rtheta=Uinf*\\theta/\\nu"
"\\gamma_r"
"C_f=\\tau_wall/0.5\\rho Uinf^2"
ZONE T="Case D (285qp:nxc/4:laix200)"
 STRANDID=0, SOLUTIONTIME=0
 I=1479, J=1, K=1, ZONETYPE=Ordered
 DATAPACKING=POINT
 DT=(SINGLE SINGLE SINGLE SINGLE SINGLE SINGLE SINGLE SINGLE SINGLE )

 2.992707968E+000 -1.729543670E-003 1.002020121E+000 1.123618931E-001 1.256881468E-002 8.716842160E-003 6.973474121E+002 7.681592251E-004 4.889201839E-003
 3.006249905E+000 -1.791290240E-003 1.002046347E+000 1.125694662E-001 1.261624508E-002 8.750483394E-003 7.000387573E+002 7.682501455E-004 4.884815309E-003
 3.019792080E+000 -1.851092326E-003 1.002071977E+000 1.127750278E-001 1.266362332E-002 8.784044534E-003 7.027236938E+002 7.685598102E-004 4.880386405E-003
 3.033333063E+000 -1.909014652E-003 1.002096891E+000 1.129786819E-001 1.271094754E-002 8.817526512E-003 7.054022827E+002 7.690842031E-004 4.875917453E-003
 3.046875000E+000 -1.965119736E-003 1.002121210E+000 1.131805182E-001 1.275821961E-002 8.850931190E-003 7.080746460E+002 7.698166883E-004 4.871410318E-003
 3.060416937E+000 -2.019467764E-003 1.002144933E+000 1.133806556E-001 1.280544139E-002 8.884259500E-003 7.107409668E+002 7.707480690E-004 4.866866395E-003
 3.073957920E+000 -2.072116826E-003 1.002168179E+000 1.135792136E-001 1.285261288E-002 8.917516097E-003 7.134014282E+002 7.718662964E-004 4.862288944E-003
 3.087500095E+000 -2.123123035E-003 1.002191186E+000 1.137763187E-001 1.289973594E-002 8.950700983E-003 7.160562134E+002 7.731565274E-004 4.857678898E-003
 3.101042032E+000 -2.172539709E-003 1.002213717E+000 1.139720827E-001 1.294681244E-002 8.983819745E-003 7.187055664E+002 7.746013580E-004 4.853038117E-003
 3.114583015E+000 -2.220418304E-003 1.002236009E+000 1.141666248E-001 1.299384423E-002 9.016873315E-003 7.213497925E+002 7.761812885E-004 4.848368466E-003
 3.128124952E+000 -2.266807714E-003 1.002257824E+000 1.143600494E-001 1.304083224E-002 9.049866349E-003 7.239891968E+002 7.778747822E-004 4.843671806E-003
 3.141666889E+000 -2.311755437E-003 1.002279401E+000 1.145524681E-001 1.308778115E-002 9.082802571E-003 7.266240234E+002 7.796589052E-004 4.838950466E-003
 3.155208111E+000 -2.355305944E-003 1.002300739E+000 1.147439629E-001 1.313469000E-002 9.115683846E-003 7.292546387E+002 7.815101999E-004 4.834205844E-003
 3.168750048E+000 -2.397502307E-003 1.002321601E+000 1.149346381E-001 1.318156347E-002 9.148514830E-003 7.318811035E+002 7.834050921E-004 4.829439800E-003
 3.182291985E+000 -2.438385738E-003 1.002342224E+000 1.151245683E-001 1.322840247E-002 9.181298316E-003 7.345038452E+002 7.853208808E-004 4.824654199E-003
 3.195832968E+000 -2.477995586E-003 1.002362370E+000 1.153138131E-001 1.327520795E-002 9.214038029E-003 7.371230469E+002 7.872361457E-004 4.819851834E-003
 3.209374905E+000 -2.516369335E-003 1.002382159E+000 1.155024469E-001 1.332198177E-002 9.246736765E-003 7.397388306E+002 7.891318528E-004 4.815033637E-003
 3.222917080E+000 -2.553544007E-003 1.002401590E+000 1.156905144E-001 1.336872391E-002 9.279394522E-003 7.423514404E+002 7.909917040E-004 4.810201935E-003
 3.236458063E+000 -2.589553827E-003 1.002420545E+000 1.158780754E-001 1.341543533E-002 9.312015027E-003 7.449610596E+002 7.928027771E-004 4.805358592E-003
 3.250000000E+000 -2.624432556E-003 1.002439022E+000 1.160651594E-001 1.346211880E-002 9.344599210E-003 7.475677490E+002 7.945554680E-004 4.800506402E-003
 3.263541937E+000 -2.658212557E-003 1.002456903E+000 1.162518114E-001 1.350876968E-002 9.377148002E-003 7.501716309E+002 7.962442469E-004 4.795647226E-003
 3.277082920E+000 -2.690925263E-003 1.002474189E+000 1.164380610E-001 1.355538890E-002 9.409660473E-003 7.527727051E+002 7.978670765E-004 4.790782928E-003
 3.290625095E+000 -2.722601872E-003 1.002490878E+000 1.166239157E-001 1.360197552E-002 9.442137554E-003 7.553709717E+002 7.994252956E-004 4.785913974E-003
 3.304167032E+000 -2.753272420E-003 1.002506971E+000 1.168093979E-001 1.364852674E-002 9.474579245E-003 7.579663086E+002 8.009233279E-004 4.781042226E-003
 3.317708015E+000 -2.782966476E-003 1.002522469E+000 1.169945300E-001 1.369504165E-002 9.506983683E-003 7.605587158E+002 8.023678092E-004 4.776169546E-003
 3.331249952E+000 -2.811714076E-003 1.002537370E+000 1.171793193E-001 1.374151651E-002 9.539349936E-003 7.631480103E+002 8.037672378E-004 4.771295935E-003
 3.344791889E+000 -2.839544322E-003 1.002551675E+000 1.173637584E-001 1.378794760E-002 9.571675211E-003 7.657341309E+002 8.051306941E-004 4.766423255E-003
 3.358333111E+000 -2.866487717E-003 1.002565622E+000 1.175478548E-001 1.383433398E-002 9.603958577E-003 7.683167725E+002 8.064672584E-004 4.761551972E-003
 3.371875048E+000 -2.892574063E-003 1.002579212E+000 1.177316010E-001 1.388067193E-002 9.636198170E-003 7.708959351E+002 8.077851962E-004 4.756682087E-003
 3.385416985E+000 -2.917833626E-003 1.002592564E+000 1.179150045E-001 1.392696053E-002 9.668390267E-003 7.734712524E+002 8.090913761E-004 4.751814064E-003
 3.398957968E+000 -2.942297840E-003 1.002605677E+000 1.180980653E-001 1.397319417E-002 9.700533003E-003 7.760426025E+002 8.103903383E-004 4.746947438E-003
 3.412499905E+000 -2.965997672E-003 1.002618551E+000 1.182807535E-001 1.401937194E-002 9.732621722E-003 7.786097412E+002 8.116841782E-004 4.742081277E-003
 3.426042080E+000 -2.988964319E-003 1.002631187E+000 1.184630617E-001 1.406549290E-002 9.764655493E-003 7.811724854E+002 8.129723719E-004 4.737215582E-003
 3.439583063E+000 -3.011229448E-003 1.002644062E+000 1.186449900E-001 1.411155239E-002 9.796632454E-003 7.837307129E+002 8.142515435E-004 4.732348956E-003
 3.453125000E+000 -3.032824025E-003 1.002657175E+000 1.188265234E-001 1.415754948E-002 9.828552604E-003 7.862841797E+002 8.155159303E-004 4.727480933E-003
 3.466666937E+000 -3.053778084E-003 1.002670288E+000 1.190076619E-001 1.420348324E-002 9.860410355E-003 7.888327637E+002 8.167577325E-004 4.722610116E-003
 3.480207920E+000 -3.074120963E-003 1.002683640E+000 1.191883683E-001 1.424935088E-002 9.892205708E-003 7.913763428E+002 8.179678116E-004 4.717735108E-003
 3.493750095E+000 -3.093880601E-003 1.002697229E+000 1.193686351E-001 1.429515146E-002 9.923938662E-003 7.939149170E+002 8.191360976E-004 4.712855443E-003
 3.507292032E+000 -3.113082377E-003 1.002711058E+000 1.195484698E-001 1.434088405E-002 9.955605492E-003 7.964483032E+002 8.202528115E-004 4.707970656E-003
 3.520833015E+000 -3.131749574E-003 1.002725124E+000 1.197278500E-001 1.438654680E-002 9.987207130E-003 7.989764404E+002 8.213088731E-004 4.703080282E-003
 3.534374952E+000 -3.149903147E-003 1.002739429E+000 1.199067831E-001 1.443213783E-002 1.001874357E-002 8.014992676E+002 8.222968900E-004 4.698184319E-003
 3.547916889E+000 -3.167560790E-003 1.002753973E+000 1.200852394E-001 1.447765529E-002 1.005021110E-002 8.040167236E+002 8.232115069E-004 4.693282768E-003
 3.561458111E+000 -3.184736706E-003 1.002768517E+000 1.202632338E-001 1.452310011E-002 1.008160971E-002 8.065286865E+002 8.240501047E-004 4.688377958E-003
 3.575000048E+000 -3.201441839E-003 1.002782822E+000 1.204407513E-001 1.456846762E-002 1.011294313E-002 8.090352783E+002 8.248129161E-004 4.683470819E-003
 3.588541985E+000 -3.217684105E-003 1.002797127E+000 1.206177771E-001 1.461375691E-002 1.014420763E-002 8.115363770E+002 8.255032008E-004 4.678563680E-003
 3.602082968E+000 -3.233468160E-003 1.002810955E+000 1.207943410E-001 1.465896424E-002 1.017540321E-002 8.140321045E+002 8.261270123E-004 4.673659801E-003
 3.615624905E+000 -3.248795168E-003 1.002824545E+000 1.209704503E-001 1.470408775E-002 1.020652987E-002 8.165222778E+002 8.266929071E-004 4.668762907E-003
 3.629167080E+000 -3.263663966E-003 1.002837420E+000 1.211460978E-001 1.474912465E-002 1.023758668E-002 8.190068970E+002 8.272114210E-004 4.663876258E-003
 3.642708063E+000 -3.278070828E-003 1.002849817E+000 1.213213056E-001 1.479407120E-002 1.026857458E-002 8.214859619E+002 8.276944864E-004 4.659005441E-003
 3.656250000E+000 -3.292010631E-003 1.002861381E+000 1.214960814E-001 1.483892463E-002 1.029949263E-002 8.239593506E+002 8.281547343E-004 4.654154181E-003
 3.669791937E+000 -3.305476392E-003 1.002872229E+000 1.216704547E-001 1.488368399E-002 1.033033896E-002 8.264271240E+002 8.286047960E-004 4.649328068E-003
 3.683332920E+000 -3.318461124E-003 1.002882481E+000 1.218444407E-001 1.492834464E-002 1.036111265E-002 8.288890381E+002 8.290567202E-004 4.644531757E-003
 3.696875095E+000 -3.330957610E-003 1.002891779E+000 1.220180467E-001 1.497290470E-002 1.039181463E-002 8.313452148E+002 8.295212174E-004 4.639769904E-003
 3.710417032E+000 -3.342958400E-003 1.002900124E+000 1.221913099E-001 1.501736045E-002 1.042244397E-002 8.337955933E+002 8.300077170E-004 4.635047168E-003
 3.723958015E+000 -3.354457440E-003 1.002907872E+000 1.223642305E-001 1.506171189E-002 1.045300066E-002 8.362399902E+002 8.305233205E-004 4.630367272E-003
 3.737499952E+000 -3.365450073E-003 1.002914906E+000 1.225368381E-001 1.510595717E-002 1.048348472E-002 8.386784668E+002 8.310734993E-004 4.625733942E-003
 3.751041889E+000 -3.375933738E-003 1.002921104E+000 1.227091402E-001 1.515009254E-002 1.051389426E-002 8.411109009E+002 8.316615713E-004 4.621150438E-003
 3.764583111E+000 -3.385907272E-003 1.002926707E+000 1.228811592E-001 1.519411802E-002 1.054422744E-002 8.435373535E+002 8.322892245E-004 4.616618156E-003
 3.778125048E+000 -3.395372536E-003 1.002931595E+000 1.230529025E-001 1.523803361E-002 1.057448424E-002 8.459578857E+002 8.329566917E-004 4.612139426E-003
 3.791666985E+000 -3.404333722E-003 1.002935648E+000 1.232243627E-001 1.528183557E-002 1.060466468E-002 8.483723755E+002 8.336631581E-004 4.607712850E-003
 3.805207968E+000 -3.412797349E-003 1.002939105E+000 1.233955324E-001 1.532552391E-002 1.063476875E-002 8.507808838E+002 8.344072266E-004 4.603339359E-003
 3.818749905E+000 -3.420772962E-003 1.002941847E+000 1.235664189E-001 1.536909863E-002 1.066479646E-002 8.531832886E+002 8.351873839E-004 4.599018022E-003
 3.832292080E+000 -3.428272670E-003 1.002943754E+000 1.237369850E-001 1.541255973E-002 1.069475058E-002 8.555797119E+002 8.360024076E-004 4.594746511E-003
 3.845833063E+000 -3.435310442E-003 1.002945065E+000 1.239072308E-001 1.545590814E-002 1.072462834E-002 8.579700317E+002 8.368515410E-004 4.590522498E-003
 3.859375000E+000 -3.441903275E-003 1.002945662E+000 1.240771264E-001 1.549914293E-002 1.075443067E-002 8.603543701E+002 8.377349004E-004 4.586343654E-003
 3.872916937E+000 -3.448069328E-003 1.002945423E+000 1.242466420E-001 1.554226223E-002 1.078415569E-002 8.627325439E+002 8.386536501E-004 4.582205787E-003
 3.886457920E+000 -3.453828394E-003 1.002944589E+000 1.244157255E-001 1.558526792E-002 1.081380434E-002 8.651045532E+002 8.396095945E-004 4.578106571E-003
 3.900000095E+000 -3.459202126E-003 1.002943039E+000 1.245843619E-001 1.562815905E-002 1.084337756E-002 8.674703369E+002 8.406054112E-004 4.574041814E-003
 3.913542032E+000 -3.464212175E-003 1.002940774E+000 1.247524992E-001 1.567093842E-002 1.087287255E-002 8.698300171E+002 8.416443598E-004 4.570007324E-003
 3.927083015E+000 -3.468881128E-003 1.002938032E+000 1.249201149E-001 1.571360230E-002 1.090229116E-002 8.721834717E+002 8.427298744E-004 4.566000775E-003
 3.940624952E+000 -3.473232035E-003 1.002934694E+000 1.250871867E-001 1.575615630E-002 1.093163155E-002 8.745307007E+002 8.438652731E-004 4.562017508E-003
 3.954166889E+000 -3.477287479E-003 1.002930760E+000 1.252536774E-001 1.579859667E-002 1.096089557E-002 8.768717651E+002 8.450533496E-004 4.558055662E-003
 3.967708111E+000 -3.481069580E-003 1.002926588E+000 1.254195571E-001 1.584092900E-002 1.099008322E-002 8.792067871E+002 8.462961996E-004 4.554111511E-003
 3.981250048E+000 -3.484599525E-003 1.002922058E+000 1.255848110E-001 1.588315517E-002 1.101919543E-002 8.815357666E+002 8.475945797E-004 4.550183192E-003
 3.994791985E+000 -3.487897338E-003 1.002917290E+000 1.257494390E-001 1.592527702E-002 1.104823407E-002 8.838587646E+002 8.489478496E-004 4.546267446E-003
 4.008333206E+000 -3.490981646E-003 1.002912283E+000 1.259134412E-001 1.596730016E-002 1.107720006E-002 8.861760254E+002 8.503539721E-004 4.542363342E-003
 4.021874905E+000 -3.493869212E-003 1.002907038E+000 1.260768771E-001 1.600922644E-002 1.110609621E-002 8.884877930E+002 8.518092800E-004 4.538469017E-003
 4.035417080E+000 -3.496576101E-003 1.002902031E+000 1.262397468E-001 1.605106331E-002 1.113492530E-002 8.907940674E+002 8.533084183E-004 4.534583539E-003
 4.048957825E+000 -3.499115584E-003 1.002897263E+000 1.264021099E-001 1.609281451E-002 1.116369106E-002 8.930952759E+002 8.548446931E-004 4.530706443E-003
 4.062500000E+000 -3.501499072E-003 1.002892613E+000 1.265639812E-001 1.613448560E-002 1.119239535E-002 8.953916626E+002 8.564104792E-004 4.526835866E-003
 4.076042175E+000 -3.503736109E-003 1.002888203E+000 1.267254204E-001 1.617608033E-002 1.122104377E-002 8.976835938E+002 8.579971618E-004 4.522972275E-003
 4.089582920E+000 -3.505834844E-003 1.002884150E+000 1.268865019E-001 1.621760428E-002 1.124964003E-002 8.999713135E+002 8.595959516E-004 4.519114736E-003
 4.103125095E+000 -3.507800400E-003 1.002880454E+000 1.270473003E-001 1.625906676E-002 1.127818786E-002 9.022551270E+002 8.611980011E-004 4.515263252E-003
 4.116666794E+000 -3.509636736E-003 1.002877116E+000 1.272078902E-001 1.630047336E-002 1.130669378E-002 9.045355225E+002 8.627952775E-004 4.511416890E-003
 4.130208015E+000 -3.511345712E-003 1.002874374E+000 1.273683310E-001 1.634182781E-002 1.133515872E-002 9.068128052E+002 8.643804467E-004 4.507575650E-003
 4.143750191E+000 -3.512927564E-003 1.002871990E+000 1.275286824E-001 1.638313755E-002 1.136359014E-002 9.090872803E+002 8.659478044E-004 4.503739998E-003
 4.157291889E+000 -3.514381126E-003 1.002869964E+000 1.276890039E-001 1.642440446E-002 1.139199082E-002 9.113594360E+002 8.674932760E-004 4.499910399E-003
 4.170833111E+000 -3.515703604E-003 1.002868295E+000 1.278493851E-001 1.646563783E-002 1.142036542E-002 9.136294556E+002 8.690147661E-004 4.496087320E-003
 4.184374809E+000 -3.516891273E-003 1.002866983E+000 1.280098408E-001 1.650683582E-002 1.144871861E-002 9.158976440E+002 8.705123328E-004 4.492270760E-003
 4.197916985E+000 -3.517939709E-003 1.002866030E+000 1.281704456E-001 1.654800773E-002 1.147705130E-002 9.181643066E+002 8.719878970E-004 4.488462117E-003
 4.211458206E+000 -3.518844023E-003 1.002865195E+000 1.283312440E-001 1.658915356E-002 1.150536723E-002 9.204295654E+002 8.734455914E-004 4.484661855E-003
 4.224999905E+000 -3.519598395E-003 1.002864599E+000 1.284922361E-001 1.663027331E-002 1.153367013E-002 9.226937256E+002 8.748914697E-004 4.480871838E-003
 4.238542080E+000 -3.520198166E-003 1.002864361E+000 1.286534369E-001 1.667137258E-002 1.156195998E-002 9.249569092E+002 8.763330407E-004 4.477092996E-003
 4.252082825E+000 -3.520638216E-003 1.002864122E+000 1.288148314E-001 1.671244949E-002 1.159023959E-002 9.272192993E+002 8.777790936E-004 4.473326728E-003
 4.265625000E+000 -3.520914586E-003 1.002864122E+000 1.289764345E-001 1.675350778E-002 1.161850989E-002 9.294808350E+002 8.792392910E-004 4.469575360E-003
 4.279167175E+000 -3.521024715E-003 1.002864122E+000 1.291382313E-001 1.679454371E-002 1.164676994E-002 9.317416382E+002 8.807237027E-004 4.465841688E-003
 4.292707920E+000 -3.520967206E-003 1.002863884E+000 1.293001771E-001 1.683556102E-002 1.167501975E-002 9.340017090E+002 8.822423988E-004 4.462127108E-003
 4.306250095E+000 -3.520742292E-003 1.002863646E+000 1.294622272E-001 1.687655784E-002 1.170326024E-002 9.362609863E+002 8.838050999E-004 4.458433948E-003
 4.319791794E+000 -3.520352533E-003 1.002863169E+000 1.296243668E-001 1.691753231E-002 1.173149142E-002 9.385195313E+002 8.854207699E-004 4.454764072E-003
 4.333333015E+000 -3.519802354E-003 1.002862453E+000 1.297865063E-001 1.695848256E-002 1.175971236E-002 9.407770996E+002 8.870972670E-004 4.451119341E-003
 4.346875191E+000 -3.519098274E-003 1.002861500E+000 1.299486160E-001 1.699940860E-002 1.178792119E-002 9.430338135E+002 8.888411103E-004 4.447502084E-003
 4.360416889E+000 -3.518249374E-003 1.002860308E+000 1.301106215E-001 1.704030856E-002 1.181611791E-002 9.452894897E+002 8.906570729E-004 4.443912767E-003
 4.373958111E+000 -3.517266363E-003 1.002858877E+000 1.302724779E-001 1.708118245E-002 1.184429973E-002 9.475440063E+002 8.925484726E-004 4.440352321E-003
 4.387499809E+000 -3.516162280E-003 1.002857208E+000 1.304341108E-001 1.712203026E-002 1.187246479E-002 9.497972412E+002 8.945164736E-004 4.436822608E-003
 4.401041985E+000 -3.514951561E-003 1.002855301E+000 1.305954903E-001 1.716285199E-002 1.190061495E-002 9.520491943E+002 8.965607267E-004 4.433323629E-003
 4.414583206E+000 -3.513649339E-003 1.002853155E+000 1.307565570E-001 1.720364764E-002 1.192874648E-002 9.542998047E+002 8.986787288E-004 4.429853987E-003
 4.428124905E+000 -3.512272146E-003 1.002850771E+000 1.309172362E-001 1.724441350E-002 1.195686031E-002 9.565489502E+002 9.008665220E-004 4.426412750E-003
 4.441667080E+000 -3.510836745E-003 1.002848625E+000 1.310775280E-001 1.728515513E-002 1.198495552E-002 9.587965088E+002 9.031184018E-004 4.422998056E-003
 4.455207825E+000 -3.509358736E-003 1.002846599E+000 1.312373579E-001 1.732587069E-002 1.201303024E-002 9.610425415E+002 9.054273833E-004 4.419608973E-003
 4.468750000E+000 -3.507853020E-003 1.002844810E+000 1.313967407E-001 1.736655831E-002 1.204108447E-002 9.632869873E+002 9.077853756E-004 4.416242242E-003
 4.482292175E+000 -3.506333334E-003 1.002843142E+000 1.315556020E-001 1.740722172E-002 1.206911914E-002 9.655298462E+002 9.101835312E-004 4.412895534E-003
 4.495832920E+000 -3.504810389E-003 1.002841830E+000 1.317139566E-001 1.744785905E-002 1.209713239E-002 9.677709961E+002 9.126123041E-004 4.409566522E-003
 4.509375095E+000 -3.503292333E-003 1.002840757E+000 1.318718046E-001 1.748846844E-002 1.212512515E-002 9.700105591E+002 9.150619153E-004 4.406251945E-003
 4.522916794E+000 -3.501784755E-003 1.002840161E+000 1.320291013E-001 1.752905548E-002 1.215309836E-002 9.722484741E+002 9.175227024E-004 4.402949009E-003
 4.536458015E+000 -3.500289284E-003 1.002839804E+000 1.321858466E-001 1.756961457E-002 1.218105108E-002 9.744846191E+002 9.199854685E-004 4.399655387E-003
 4.550000191E+000 -3.498804290E-003 1.002839923E+000 1.323420554E-001 1.761014760E-002 1.220898330E-002 9.767189331E+002 9.224413079E-004 4.396368749E-003
 4.563541889E+000 -3.497324185E-003 1.002840519E+000 1.324977130E-001 1.765065640E-002 1.223689318E-002 9.789514160E+002 9.248823044E-004 4.393086769E-003
 4.577083111E+000 -3.495840356E-003 1.002841592E+000 1.326528341E-001 1.769113541E-002 1.226478070E-002 9.811821289E+002 9.273013566E-004 4.389807582E-003
 4.590624809E+000 -3.494341159E-003 1.002842903E+000 1.328074336E-001 1.773158833E-002 1.229264401E-002 9.834110107E+002 9.296923527E-004 4.386530258E-003
 4.604166985E+000 -3.492811695E-003 1.002844691E+000 1.329615265E-001 1.777200773E-002 1.232048310E-002 9.856380615E+002 9.320504032E-004 4.383253865E-003
 4.617708206E+000 -3.491235897E-003 1.002846718E+000 1.331151128E-001 1.781239361E-002 1.234829798E-002 9.878633423E+002 9.343713755E-004 4.379977938E-003
 4.631249905E+000 -3.489595605E-003 1.002849102E+000 1.332681775E-001 1.785274781E-002 1.237608865E-002 9.900867920E+002 9.366522427E-004 4.376702942E-003
 4.644792080E+000 -3.487872425E-003 1.002851605E+000 1.334207356E-001 1.789306663E-002 1.240385696E-002 9.923084106E+002 9.388907347E-004 4.373428412E-003
 4.658332825E+000 -3.486047965E-003 1.002854347E+000 1.335728616E-001 1.793335006E-002 1.243160479E-002 9.945283203E+002 9.410853381E-004 4.370155279E-003
 4.671875000E+000 -3.484105226E-003 1.002857447E+000 1.337245405E-001 1.797359809E-002 1.245933399E-002 9.967465820E+002 9.432350053E-004 4.366884939E-003
 4.685417175E+000 -3.482028376E-003 1.002860546E+000 1.338757873E-001 1.801381074E-002 1.248704456E-002 9.989635010E+002 9.453392122E-004 4.363617394E-003
 4.698957920E+000 -3.479804378E-003 1.002863884E+000 1.340266317E-001 1.805398986E-002 1.251474023E-002 1.001179138E+003 9.473977843E-004 4.360354505E-003
 4.712500095E+000 -3.477423918E-003 1.002866983E+000 1.341770887E-001 1.809413731E-002 1.254242379E-002 1.003393738E+003 9.494107217E-004 4.357097205E-003
 4.726041794E+000 -3.474879777E-003 1.002869844E+000 1.343272179E-001 1.813425496E-002 1.257009711E-002 1.005607544E+003 9.513781988E-004 4.353846423E-003
 4.739583015E+000 -3.472169861E-003 1.002872705E+000 1.344770342E-001 1.817434654E-002 1.259776577E-002 1.007821045E+003 9.533007396E-004 4.350604024E-003
 4.753125191E+000 -3.469296033E-003 1.002875566E+000 1.346265823E-001 1.821441762E-002 1.262543350E-002 1.010034363E+003 9.551789844E-004 4.347370006E-003
 4.766666889E+000 -3.466263879E-003 1.002878189E+000 1.347759068E-001 1.825447194E-002 1.265310310E-002 1.012247925E+003 9.570136899E-004 4.344144370E-003
 4.780208111E+000 -3.463083180E-003 1.002880692E+000 1.349250525E-001 1.829451323E-002 1.268078201E-002 1.014462158E+003 9.588061366E-004 4.340928514E-003
 4.793749809E+000 -3.459767438E-003 1.002882957E+000 1.350740641E-001 1.833455078E-002 1.270847209E-002 1.016677490E+003 9.605575469E-004 4.337722436E-003
 4.807291985E+000 -3.456333652E-003 1.002885103E+000 1.352230012E-001 1.837458462E-002 1.273618080E-002 1.018894104E+003 9.622697253E-004 4.334526137E-003
 4.820833206E+000 -3.452801378E-003 1.002886891E+000 1.353719532E-001 1.841462404E-002 1.276390906E-002 1.021112549E+003 9.639444761E-004 4.331338219E-003
 4.834374905E+000 -3.449191805E-003 1.002888322E+000 1.355209649E-001 1.845467091E-002 1.279166341E-002 1.023332947E+003 9.655837785E-004 4.328158684E-003
 4.847917080E+000 -3.445527749E-003 1.002889395E+000 1.356701255E-001 1.849473082E-002 1.281944849E-002 1.025555664E+003 9.671897860E-004 4.324986599E-003
 4.861457825E+000 -3.441832494E-003 1.002889872E+000 1.358194947E-001 1.853480935E-002 1.284726709E-002 1.027781006E+003 9.687644197E-004 4.321821034E-003
 4.875000000E+000 -3.438129323E-003 1.002889752E+000 1.359691471E-001 1.857490838E-002 1.287511922E-002 1.030009033E+003 9.703093674E-004 4.318660591E-003
 4.888542175E+000 -3.434439423E-003 1.002889156E+000 1.361191273E-001 1.861503348E-002 1.290300675E-002 1.032239990E+003 9.718257934E-004 4.315502942E-003
 4.902082920E+000 -3.430782817E-003 1.002887726E+000 1.362694949E-001 1.865518466E-002 1.293093339E-002 1.034474121E+003 9.733142215E-004 4.312347155E-003
 4.915625095E+000 -3.427176969E-003 1.002885699E+000 1.364203244E-001 1.869536191E-002 1.295889914E-002 1.036711426E+003 9.747741860E-004 4.309190903E-003
 4.929166794E+000 -3.423635615E-003 1.002882957E+000 1.365716457E-001 1.873556897E-002 1.298690401E-002 1.038951904E+003 9.762041736E-004 4.306032322E-003
 4.942708015E+000 -3.420168534E-003 1.002879500E+000 1.367234886E-001 1.877580211E-002 1.301494334E-002 1.041195313E+003 9.776013903E-004 4.302869085E-003
 4.956250191E+000 -3.416782012E-003 1.002875328E+000 1.368758976E-001 1.881606132E-002 1.304301713E-002 1.043441284E+003 9.789618198E-004 4.299700260E-003
 4.969791889E+000 -3.413477447E-003 1.002870440E+000 1.370288730E-001 1.885634474E-002 1.307112351E-002 1.045689819E+003 9.802795248E-004 4.296524450E-003
 4.983333111E+000 -3.410251811E-003 1.002864838E+000 1.371824145E-001 1.889664680E-002 1.309925877E-002 1.047940674E+003 9.815476369E-004 4.293339793E-003
 4.996874809E+000 -3.407097422E-003 1.002858639E+000 1.373365074E-001 1.893696934E-002 1.312742196E-002 1.050193848E+003 9.827578906E-004 4.290146288E-003
 5.010416985E+000 -3.404003102E-003 1.002851725E+000 1.374911666E-001 1.897730306E-002 1.315560844E-002 1.052448730E+003 9.839008562E-004 4.286943004E-003
 5.023958206E+000 -3.400952555E-003 1.002844214E+000 1.376463622E-001 1.901764795E-002 1.318381540E-002 1.054705322E+003 9.849662893E-004 4.283730406E-003
 5.037499905E+000 -3.397927387E-003 1.002836227E+000 1.378020644E-001 1.905800216E-002 1.321204100E-002 1.056963379E+003 9.859434795E-004 4.280508496E-003
 5.051042080E+000 -3.394905012E-003 1.002827883E+000 1.379582584E-001 1.909836382E-002 1.324028336E-002 1.059222656E+003 9.868216002E-004 4.277279135E-003
 5.064582825E+000 -3.391861450E-003 1.002819061E+000 1.381148696E-001 1.913872734E-002 1.326853968E-002 1.061483154E+003 9.875902906E-004 4.274043720E-003
 5.078125000E+000 -3.388770856E-003 1.002810121E+000 1.382718980E-001 1.917909458E-002 1.329680905E-002 1.063744629E+003 9.882404702E-004 4.270805512E-003
 5.091667175E+000 -3.385606455E-003 1.002800941E+000 1.384293139E-001 1.921946555E-002 1.332509238E-002 1.066007324E+003 9.887644555E-004 4.267566837E-003
 5.105207920E+000 -3.382341936E-003 1.002791643E+000 1.385870576E-001 1.925984025E-002 1.335339062E-002 1.068271118E+003 9.891571244E-004 4.264331423E-003
 5.118750095E+000 -3.378951922E-003 1.002782345E+000 1.387451291E-001 1.930021681E-002 1.338170469E-002 1.070536255E+003 9.894160321E-004 4.261102527E-003
 5.132291794E+000 -3.375411499E-003 1.002773285E+000 1.389034837E-001 1.934060268E-002 1.341003552E-002 1.072802734E+003 9.895423427E-004 4.257885739E-003
 5.145833015E+000 -3.371699480E-003 1.002764463E+000 1.390621066E-001 1.938099787E-002 1.343838684E-002 1.075071045E+003 9.895411786E-004 4.254685715E-003
 5.159375191E+000 -3.367796075E-003 1.002756000E+000 1.392209381E-001 1.942140609E-002 1.346676238E-002 1.077341064E+003 9.894219693E-004 4.251506180E-003
 5.172916889E+000 -3.363685682E-003 1.002747893E+000 1.393799782E-001 1.946182922E-002 1.349516399E-002 1.079613159E+003 9.891985683E-004 4.248352721E-003
 5.186458111E+000 -3.359356197E-003 1.002740383E+000 1.395392269E-001 1.950227469E-002 1.352359541E-002 1.081887573E+003 9.888896020E-004 4.245230462E-003
 5.199999809E+000 -3.354799468E-003 1.002733588E+000 1.396986544E-001 1.954274252E-002 1.355205849E-002 1.084164673E+003 9.885178879E-004 4.242142662E-003
 5.213541985E+000 -3.350011539E-003 1.002727509E+000 1.398582309E-001 1.958323643E-002 1.358055696E-002 1.086444458E+003 9.881102014E-004 4.239093047E-003
 5.227083206E+000 -3.344993573E-003 1.002722025E+000 1.400179565E-001 1.962376386E-002 1.360909268E-002 1.088727295E+003 9.876961121E-004 4.236085340E-003
 5.240624905E+000 -3.339749528E-003 1.002717257E+000 1.401778460E-001 1.966432109E-002 1.363766659E-002 1.091013428E+003 9.873080999E-004 4.233122338E-003
 5.254167080E+000 -3.334288253E-003 1.002713442E+000 1.403378546E-001 1.970491372E-002 1.366628055E-002 1.093302490E+003 9.869795758E-004 4.230205901E-003
 5.267707825E+000 -3.328622086E-003 1.002710819E+000 1.404979527E-001 1.974553987E-002 1.369493455E-002 1.095594849E+003 9.867443005E-004 4.227337427E-003
 5.281250000E+000 -3.322766395E-003 1.002708912E+000 1.406581700E-001 1.978620142E-002 1.372362860E-002 1.097890381E+003 9.866344044E-004 4.224517383E-003
 5.294792175E+000 -3.316739341E-003 1.002707720E+000 1.408184767E-001 1.982689463E-002 1.375236176E-002 1.100189209E+003 9.866794571E-004 4.221746232E-003
 5.308332920E+000 -3.310560947E-003 1.002707243E+000 1.409788728E-001 1.986762136E-002 1.378113404E-002 1.102490967E+003 9.869051864E-004 4.219022579E-003
 5.321875095E+000 -3.304252634E-003 1.002707481E+000 1.411393583E-001 1.990838349E-002 1.380994543E-002 1.104795898E+003 9.873323143E-004 4.216345027E-003
 5.335416794E+000 -3.297836287E-003 1.002708197E+000 1.412999928E-001 1.994917542E-002 1.383879222E-002 1.107103516E+003 9.879751597E-004 4.213711247E-003
 5.348958015E+000 -3.291333327E-003 1.002709389E+000 1.414607912E-001 1.998999529E-002 1.386767346E-002 1.109413818E+003 9.888415225E-004 4.211118910E-003
 5.362500191E+000 -3.284764476E-003 1.002710700E+000 1.416217387E-001 2.003084123E-002 1.389658824E-002 1.111727051E+003 9.899318684E-004 4.208565690E-003
 5.376041889E+000 -3.278148593E-003 1.002712250E+000 1.417829096E-001 2.007171325E-002 1.392553560E-002 1.114042725E+003 9.912389796E-004 4.206048325E-003
 5.389583111E+000 -3.271502675E-003 1.002713919E+000 1.419442892E-001 2.011260577E-002 1.395451464E-002 1.116360962E+003 9.927492356E-004 4.203563556E-003
 5.403124809E+000 -3.264839761E-003 1.002715349E+000 1.421059370E-001 2.015352249E-002 1.398352534E-002 1.118681763E+003 9.944417980E-004 4.201108124E-003
 5.416666985E+000 -3.258170560E-003 1.002716541E+000 1.422679126E-001 2.019445784E-002 1.401256397E-002 1.121004883E+003 9.962905897E-004 4.198679700E-003
 5.430208206E+000 -3.251501359E-003 1.002717376E+000 1.424302161E-001 2.023541555E-002 1.404163055E-002 1.123330322E+003 9.982649935E-004 4.196275026E-003
 5.443749905E+000 -3.244834486E-003 1.002717972E+000 1.425929070E-001 2.027639002E-002 1.407072693E-002 1.125658081E+003 1.000331133E-003 4.193891771E-003
 5.457292080E+000 -3.238168545E-003 1.002718091E+000 1.427559853E-001 2.031738497E-002 1.409985498E-002 1.127988281E+003 1.002453850E-003 4.191527143E-003
 5.470832825E+000 -3.231497249E-003 1.002717614E+000 1.429194808E-001 2.035839856E-002 1.412901469E-002 1.130320923E+003 1.004597521E-003 4.189178813E-003
 5.484375000E+000 -3.224811517E-003 1.002716541E+000 1.430834383E-001 2.039942890E-002 1.415820606E-002 1.132656128E+003 1.006728271E-003 4.186844919E-003
 5.497917175E+000 -3.218098311E-003 1.002714872E+000 1.432478428E-001 2.044047788E-002 1.418742724E-002 1.134993896E+003 1.008814550E-003 4.184523597E-003
 5.511457920E+000 -3.211341798E-003 1.002712488E+000 1.434126794E-001 2.048154548E-002 1.421668008E-002 1.137334229E+003 1.010829117E-003 4.182212520E-003
 5.525000095E+000 -3.204523586E-003 1.002709627E+000 1.435779333E-001 2.052263170E-002 1.424596459E-002 1.139677124E+003 1.012749504E-003 4.179910757E-003
 5.538541794E+000 -3.197624115E-003 1.002706051E+000 1.437436044E-001 2.056373656E-002 1.427527890E-002 1.142022217E+003 1.014558482E-003 4.177617375E-003