TITLE     = "Case E (NASA-TM20210020762)"
VARIABLES = "x"
"Cp_wall"
"Ue_tilde"
"\\delta995"
"\\delta*"
"\\theta"
"Rtheta=Uinf*\\theta/\\nu"
"\\gamma_r"
"C_f=\\tau_wall/0.5\\rho Uinf^2"
ZONE T="Case E (505qr:nxc/10:laix200)"
 STRANDID=0, SOLUTIONTIME=0
 I=1420, J=1, K=1, ZONETYPE=Ordered
 DATAPACKING=POINT
 DT=(SINGLE SINGLE SINGLE SINGLE SINGLE SINGLE SINGLE SINGLE SINGLE )
 2.990451097E+000 -5.312394816E-003 1.001935720E+000 1.102508903E-001 1.123460941E-002 8.269231766E-003 1.488462036E+003 1.522673760E-003 4.155842122E-003
 3.004556894E+000 -5.354914814E-003 1.001960993E+000 1.104652286E-001 1.127708610E-002 8.299726993E-003 1.493951294E+003 1.527270535E-003 4.150827415E-003
 3.018662930E+000 -5.395362154E-003 1.001985550E+000 1.106769666E-001 1.131947152E-002 8.330142125E-003 1.499425903E+003 1.531815040E-003 4.145826213E-003
 3.032768965E+000 -5.433820188E-003 1.002009392E+000 1.108861342E-001 1.136176754E-002 8.360479027E-003 1.504886475E+003 1.536301337E-003 4.140834790E-003
 3.046875000E+000 -5.470369477E-003 1.002032042E+000 1.110927686E-001 1.140397787E-002 8.390739560E-003 1.510333496E+003 1.540726284E-003 4.135851748E-003
 3.060981035E+000 -5.505086854E-003 1.002053499E+000 1.112969220E-001 1.144610718E-002 8.420929313E-003 1.515767822E+003 1.545089646E-003 4.130874760E-003
 3.075087070E+000 -5.538046826E-003 1.002073765E+000 1.114986464E-001 1.148816012E-002 8.451053873E-003 1.521190186E+003 1.549394568E-003 4.125902895E-003
 3.089193106E+000 -5.569321103E-003 1.002092838E+000 1.116980314E-001 1.153014041E-002 8.481117897E-003 1.526601563E+003 1.553646638E-003 4.120936617E-003
 3.103298903E+000 -5.598978605E-003 1.002110600E+000 1.118951365E-001 1.157205552E-002 8.511124179E-003 1.532002930E+003 1.557854237E-003 4.115974996E-003
 3.117404938E+000 -5.627084989E-003 1.002127171E+000 1.120900810E-001 1.161391102E-002 8.541081101E-003 1.537395020E+003 1.562027493E-003 4.111018963E-003
 3.131510019E+000 -5.653704051E-003 1.002142429E+000 1.122829467E-001 1.165571064E-002 8.570992388E-003 1.542779175E+003 1.566177467E-003 4.106069449E-003
 3.145616055E+000 -5.678896792E-003 1.002156377E+000 1.124738529E-001 1.169746090E-002 8.600864559E-003 1.548156250E+003 1.570316148E-003 4.101128317E-003
 3.159722090E+000 -5.702721886E-003 1.002169013E+000 1.126629263E-001 1.173916832E-002 8.630704135E-003 1.553527100E+003 1.574454946E-003 4.096198361E-003
 3.173827887E+000 -5.725234747E-003 1.002180338E+000 1.128502935E-001 1.178084128E-002 8.660515770E-003 1.558893066E+003 1.578604337E-003 4.091280513E-003
 3.187933922E+000 -5.746489856E-003 1.002190351E+000 1.130361110E-001 1.182248257E-002 8.690306917E-003 1.564255127E+003 1.582772937E-003 4.086378496E-003
 3.202039957E+000 -5.766537040E-003 1.002199292E+000 1.132205054E-001 1.186409872E-002 8.720080368E-003 1.569614258E+003 1.586966682E-003 4.081494175E-003
 3.216145992E+000 -5.785424262E-003 1.002207041E+000 1.134036407E-001 1.190569624E-002 8.749843575E-003 1.574971680E+003 1.591188717E-003 4.076631274E-003
 3.230252028E+000 -5.803197622E-003 1.002213717E+000 1.135856733E-001 1.194728166E-002 8.779602125E-003 1.580328369E+003 1.595438342E-003 4.071791656E-003
 3.244358063E+000 -5.819898099E-003 1.002219558E+000 1.137667671E-001 1.198885962E-002 8.809358813E-003 1.585684814E+003 1.599711482E-003 4.066979513E-003
 3.258464098E+000 -5.835566670E-003 1.002224684E+000 1.139470935E-001 1.203043386E-002 8.839120157E-003 1.591041870E+003 1.604000106E-003 4.062195309E-003
 3.272568941E+000 -5.850240588E-003 1.002228975E+000 1.141268015E-001 1.207201090E-002 8.868889883E-003 1.596400269E+003 1.608292572E-003 4.057442769E-003
 3.286674976E+000 -5.863953382E-003 1.002232671E+000 1.143060923E-001 1.211359352E-002 8.898670785E-003 1.601760742E+003 1.612574095E-003 4.052721895E-003
 3.300781012E+000 -5.876739044E-003 1.002235651E+000 1.144851148E-001 1.215518359E-002 8.928464726E-003 1.607123657E+003 1.616827445E-003 4.048035480E-003
 3.314887047E+000 -5.888627376E-003 1.002238274E+000 1.146640405E-001 1.219678670E-002 8.958274499E-003 1.612489258E+003 1.621033065E-003 4.043383058E-003
 3.328993082E+000 -5.899647251E-003 1.002240300E+000 1.148430407E-001 1.223840192E-002 8.988100104E-003 1.617857910E+003 1.625170815E-003 4.038765095E-003
 3.343099117E+000 -5.909825675E-003 1.002242088E+000 1.150222644E-001 1.228003204E-002 9.017942473E-003 1.623229736E+003 1.629219623E-003 4.034181125E-003
 3.357204914E+000 -5.919188727E-003 1.002243400E+000 1.152018681E-001 1.232167520E-002 9.047802538E-003 1.628604736E+003 1.633159700E-003 4.029629752E-003
 3.371310949E+000 -5.927761085E-003 1.002244473E+000 1.153819934E-001 1.236333046E-002 9.077677503E-003 1.633982300E+003 1.636972418E-003 4.025110044E-003
 3.385416985E+000 -5.935567431E-003 1.002245188E+000 1.155627668E-001 1.240499690E-002 9.107566439E-003 1.639362305E+003 1.640641247E-003 4.020620603E-003
 3.399523020E+000 -5.942631513E-003 1.002245784E+000 1.157443076E-001 1.244667172E-002 9.137465619E-003 1.644744141E+003 1.644152915E-003 4.016158637E-003
 3.413628101E+000 -5.948975682E-003 1.002246141E+000 1.159267277E-001 1.248835120E-002 9.167371318E-003 1.650127319E+003 1.647497644E-003 4.011721350E-003
 3.427733898E+000 -5.954624154E-003 1.002246141E+000 1.161101088E-001 1.253003161E-002 9.197279811E-003 1.655510864E+003 1.650669030E-003 4.007305950E-003
 3.441839933E+000 -5.959599279E-003 1.002246022E+000 1.162945181E-001 1.257170737E-002 9.227186441E-003 1.660894043E+003 1.653664978E-003 4.002910573E-003
 3.455945969E+000 -5.963923410E-003 1.002245665E+000 1.164800227E-001 1.261337381E-002 9.257085621E-003 1.666275757E+003 1.656486886E-003 3.998531029E-003
 3.470052004E+000 -5.967618432E-003 1.002245188E+000 1.166666448E-001 1.265502442E-002 9.286969900E-003 1.671655029E+003 1.659140224E-003 3.994165920E-003
 3.484158039E+000 -5.970705301E-003 1.002244473E+000 1.168544143E-001 1.269665360E-002 9.316835552E-003 1.677030762E+003 1.661633374E-003 3.989812452E-003
 3.498264074E+000 -5.973205902E-003 1.002243519E+000 1.170433164E-001 1.273825392E-002 9.346676059E-003 1.682401855E+003 1.663977397E-003 3.985468298E-003
 3.512370110E+000 -5.975140259E-003 1.002242327E+000 1.172333062E-001 1.277981978E-002 9.376484901E-003 1.687767334E+003 1.666186028E-003 3.981131129E-003
 3.526475906E+000 -5.976528861E-003 1.002240896E+000 1.174243465E-001 1.282134280E-002 9.406253695E-003 1.693125732E+003 1.668274403E-003 3.976800945E-003
 3.540581942E+000 -5.977390334E-003 1.002239227E+000 1.176163629E-001 1.286281645E-002 9.435977787E-003 1.698476074E+003 1.670258236E-003 3.972476348E-003
 3.554687977E+000 -5.977743305E-003 1.002237558E+000 1.178092659E-001 1.290423516E-002 9.465651587E-003 1.703817261E+003 1.672154060E-003 3.968156409E-003
 3.568793058E+000 -5.977604538E-003 1.002236128E+000 1.180029511E-001 1.294559240E-002 9.495268576E-003 1.709148438E+003 1.673977706E-003 3.963841125E-003
 3.582899094E+000 -5.976989400E-003 1.002234936E+000 1.181973070E-001 1.298688166E-002 9.524824098E-003 1.714468506E+003 1.675744541E-003 3.959531896E-003
 3.597004890E+000 -5.975913256E-003 1.002233982E+000 1.183921993E-001 1.302809734E-002 9.554314427E-003 1.719776611E+003 1.677469001E-003 3.955228254E-003
 3.611110926E+000 -5.974389613E-003 1.002233267E+000 1.185874939E-001 1.306923572E-002 9.583733976E-003 1.725072021E+003 1.679163543E-003 3.950932063E-003
 3.625216961E+000 -5.972431041E-003 1.002232790E+000 1.187830493E-001 1.311029121E-002 9.613079019E-003 1.730354004E+003 1.680839458E-003 3.946644254E-003
 3.639322996E+000 -5.970047787E-003 1.002232552E+000 1.189787388E-001 1.315126009E-002 9.642346762E-003 1.735622314E+003 1.682506292E-003 3.942365758E-003
 3.653429031E+000 -5.967249162E-003 1.002232313E+000 1.191744208E-001 1.319213863E-002 9.671535343E-003 1.740876221E+003 1.684171730E-003 3.938097972E-003
 3.667535067E+000 -5.964045413E-003 1.002232313E+000 1.193699911E-001 1.323292498E-002 9.700644761E-003 1.746115723E+003 1.685842057E-003 3.933843691E-003
 3.681641102E+000 -5.960443523E-003 1.002232552E+000 1.195653379E-001 1.327361725E-002 9.729670361E-003 1.751340332E+003 1.687522046E-003 3.929604776E-003
 3.695746899E+000 -5.956449080E-003 1.002233028E+000 1.197603717E-001 1.331421547E-002 9.758614004E-003 1.756550293E+003 1.689215307E-003 3.925384022E-003
 3.709851980E+000 -5.952067673E-003 1.002233744E+000 1.199550107E-001 1.335471682E-002 9.787474759E-003 1.761745361E+003 1.690924284E-003 3.921182826E-003
 3.723958015E+000 -5.947303027E-003 1.002234697E+000 1.201491952E-001 1.339512132E-002 9.816255420E-003 1.766925781E+003 1.692650723E-003 3.917003516E-003
 3.738064051E+000 -5.942160264E-003 1.002235889E+000 1.203428805E-001 1.343543082E-002 9.844955988E-003 1.772091919E+003 1.694395673E-003 3.912849352E-003
 3.752170086E+000 -5.936641246E-003 1.002237201E+000 1.205360442E-001 1.347564533E-002 9.873577394E-003 1.777243896E+003 1.696159714E-003 3.908722661E-003
 3.766275883E+000 -5.930749234E-003 1.002238274E+000 1.207286566E-001 1.351576578E-002 9.902121499E-003 1.782381836E+003 1.697943546E-003 3.904626006E-003
 3.780381918E+000 -5.924487486E-003 1.002239227E+000 1.209207177E-001 1.355579123E-002 9.930590168E-003 1.787506226E+003 1.699747168E-003 3.900562646E-003
 3.794487953E+000 -5.917857401E-003 1.002239823E+000 1.211122274E-001 1.359572541E-002 9.958986193E-003 1.792617432E+003 1.701571164E-003 3.896535374E-003
 3.808593988E+000 -5.910863169E-003 1.002240181E+000 1.213031858E-001 1.363556832E-002 9.987308644E-003 1.797715576E+003 1.703415997E-003 3.892546520E-003
 3.822700024E+000 -5.903508514E-003 1.002240419E+000 1.214935929E-001 1.367531903E-002 1.001556125E-002 1.802801025E+003 1.705282019E-003 3.888599575E-003
 3.836806059E+000 -5.895797163E-003 1.002240181E+000 1.216834784E-001 1.371497847E-002 1.004374400E-002 1.807874023E+003 1.707170042E-003 3.884696402E-003
 3.850910902E+000 -5.887736566E-003 1.002239585E+000 1.218728423E-001 1.375454850E-002 1.007185876E-002 1.812934692E+003 1.709080767E-003 3.880840261E-003
 3.865016937E+000 -5.879332777E-003 1.002238512E+000 1.220616773E-001 1.379402727E-002 1.009990461E-002 1.817982910E+003 1.711015124E-003 3.877033014E-003
 3.879122972E+000 -5.870595574E-003 1.002236843E+000 1.222499609E-001 1.383341476E-002 1.012788527E-002 1.823019043E+003 1.712973695E-003 3.873276059E-003
 3.893229008E+000 -5.861536600E-003 1.002234578E+000 1.224376857E-001 1.387271099E-002 1.015579887E-002 1.828043091E+003 1.714957180E-003 3.869570326E-003
 3.907335043E+000 -5.852168426E-003 1.002231717E+000 1.226248294E-001 1.391191594E-002 1.018364355E-002 1.833054932E+003 1.716966042E-003 3.865917213E-003
 3.921441078E+000 -5.842505954E-003 1.002228260E+000 1.228113621E-001 1.395102963E-002 1.021141931E-002 1.838054443E+003 1.718999934E-003 3.862316255E-003
 3.935547113E+000 -5.832567811E-003 1.002223969E+000 1.229972690E-001 1.399005204E-002 1.023912616E-002 1.843041626E+003 1.721058623E-003 3.858766519E-003
 3.949652910E+000 -5.822373554E-003 1.002219200E+000 1.231825054E-001 1.402898319E-002 1.026676409E-002 1.848016602E+003 1.723140944E-003 3.855266143E-003
 3.963758945E+000 -5.811944138E-003 1.002213717E+000 1.233670563E-001 1.406782679E-002 1.029433310E-002 1.852979248E+003 1.725245500E-003 3.851813031E-003
 3.977864981E+000 -5.801304244E-003 1.002207637E+000 1.235508695E-001 1.410658285E-002 1.032183506E-002 1.857929688E+003 1.727369730E-003 3.848403692E-003
 3.991970062E+000 -5.790478550E-003 1.002201080E+000 1.237339377E-001 1.414525509E-002 1.034926996E-002 1.862868164E+003 1.729510957E-003 3.845033934E-003
 4.006075859E+000 -5.779494531E-003 1.002194047E+000 1.239162534E-001 1.418384444E-002 1.037664060E-002 1.867794922E+003 1.731665805E-003 3.841698635E-003
 4.020182133E+000 -5.768379197E-003 1.002186775E+000 1.240977794E-001 1.422235556E-002 1.040394697E-002 1.872709961E+003 1.733830664E-003 3.838392673E-003
 4.034287930E+000 -5.757161416E-003 1.002179146E+000 1.242785156E-001 1.426079497E-002 1.043119095E-002 1.877614014E+003 1.736001577E-003 3.835109761E-003
 4.048394203E+000 -5.745869130E-003 1.002171516E+000 1.244584769E-001 1.429916546E-002 1.045837719E-002 1.882507568E+003 1.738174353E-003 3.831843380E-003
 4.062500000E+000 -5.734531209E-003 1.002163887E+000 1.246376783E-001 1.433747448E-002 1.048550755E-002 1.887391113E+003 1.740345382E-003 3.828587011E-003
 4.076605797E+000 -5.723173264E-003 1.002156496E+000 1.248161346E-001 1.437572762E-002 1.051258855E-002 1.892265503E+003 1.742511522E-003 3.825333435E-003
 4.090712070E+000 -5.711820908E-003 1.002149343E+000 1.249938756E-001 1.441393141E-002 1.053962298E-002 1.897131592E+003 1.744670095E-003 3.822077066E-003
 4.104817867E+000 -5.700498354E-003 1.002142549E+000 1.251709461E-001 1.445209421E-002 1.056661550E-002 1.901990234E+003 1.746819587E-003 3.818810917E-003
 4.118924141E+000 -5.689225160E-003 1.002135992E+000 1.253473759E-001 1.449022256E-002 1.059357263E-002 1.906842407E+003 1.748959301E-003 3.815529868E-003
 4.133029938E+000 -5.678018555E-003 1.002130032E+000 1.255232096E-001 1.452832390E-002 1.062049810E-002 1.911689087E+003 1.751090167E-003 3.812228795E-003
 4.147134781E+000 -5.666893907E-003 1.002124667E+000 1.256984919E-001 1.456640661E-002 1.064739935E-002 1.916531250E+003 1.753213932E-003 3.808904439E-003
 4.161241055E+000 -5.655860528E-003 1.002119780E+000 1.258732677E-001 1.460447628E-002 1.067428105E-002 1.921370117E+003 1.755333855E-003 3.805553541E-003
 4.175346851E+000 -5.644925404E-003 1.002115488E+000 1.260476112E-001 1.464254037E-002 1.070114784E-002 1.926206543E+003 1.757454011E-003 3.802174469E-003
 4.189453125E+000 -5.634090398E-003 1.002111673E+000 1.262215525E-001 1.468060445E-002 1.072800718E-002 1.931041260E+003 1.759579405E-003 3.798766294E-003
 4.203558922E+000 -5.623353645E-003 1.002108097E+000 1.263951659E-001 1.471867319E-002 1.075486187E-002 1.935875244E+003 1.761715859E-003 3.795329947E-003
 4.217665195E+000 -5.612709560E-003 1.002104998E+000 1.265684366E-001 1.475675032E-002 1.078171656E-002 1.940709106E+003 1.763869077E-003 3.791867290E-003
 4.231770992E+000 -5.602148362E-003 1.002101898E+000 1.267414391E-001 1.479483955E-002 1.080857404E-002 1.945543457E+003 1.766044879E-003 3.788380418E-003
 4.245876789E+000 -5.591657013E-003 1.002099037E+000 1.269141734E-001 1.483294275E-002 1.083543710E-002 1.950378784E+003 1.768248272E-003 3.784873290E-003
 4.259983063E+000 -5.581217818E-003 1.002095938E+000 1.270866394E-001 1.487106085E-002 1.086230576E-002 1.955215332E+003 1.770483563E-003 3.781350330E-003
 4.274088860E+000 -5.570813082E-003 1.002092600E+000 1.272588670E-001 1.490919478E-002 1.088918187E-002 1.960053223E+003 1.772753545E-003 3.777816426E-003
 4.288194180E+000 -5.560420919E-003 1.002089262E+000 1.274308413E-001 1.494734269E-002 1.091606729E-002 1.964892578E+003 1.775059849E-003 3.774276935E-003
 4.302299976E+000 -5.550018512E-003 1.002085447E+000 1.276025325E-001 1.498550270E-002 1.094296016E-002 1.969733154E+003 1.777402475E-003 3.770736977E-003
 4.316405773E+000 -5.539583974E-003 1.002081275E+000 1.277739406E-001 1.502367202E-002 1.096986048E-002 1.974574951E+003 1.779779559E-003 3.767202608E-003
 4.330512047E+000 -5.529092159E-003 1.002076745E+000 1.279450059E-001 1.506184880E-002 1.099676453E-002 1.979417725E+003 1.782187843E-003 3.763678716E-003
 4.344617844E+000 -5.518520251E-003 1.002071619E+000 1.281157136E-001 1.510003023E-002 1.102367137E-002 1.984260986E+003 1.784622669E-003 3.760170657E-003
 4.358724117E+000 -5.507845897E-003 1.002065897E+000 1.282860041E-001 1.513821352E-002 1.105058007E-002 1.989104492E+003 1.787078101E-003 3.756682388E-003
 4.372829914E+000 -5.497048143E-003 1.002059698E+000 1.284558773E-001 1.517639402E-002 1.107748691E-002 1.993947754E+003 1.789547736E-003 3.753218334E-003
 4.386936188E+000 -5.486108363E-003 1.002053261E+000 1.286253035E-001 1.521456614E-002 1.110439003E-002 1.998790283E+003 1.792024588E-003 3.749781521E-003
 4.401041985E+000 -5.475009792E-003 1.002046347E+000 1.287942231E-001 1.525272615E-002 1.113128848E-002 2.003631714E+003 1.794501906E-003 3.746374510E-003
 4.415147781E+000 -5.463737994E-003 1.002039313E+000 1.289626360E-001 1.529086940E-002 1.115817763E-002 2.008471680E+003 1.796973287E-003 3.742999397E-003
 4.429253101E+000 -5.452279933E-003 1.002032042E+000 1.291305423E-001 1.532899402E-002 1.118505653E-002 2.013310059E+003 1.799433026E-003 3.739656880E-003
 4.443358898E+000 -5.440626759E-003 1.002024412E+000 1.292979419E-001 1.536709629E-002 1.121192332E-002 2.018145996E+003 1.801876584E-003 3.736347891E-003
 4.457465172E+000 -5.428770091E-003 1.002016544E+000 1.294648647E-001 1.540517434E-002 1.123877615E-002 2.022979492E+003 1.804300351E-003 3.733072896E-003
 4.471570969E+000 -5.416704807E-003 1.002008915E+000 1.296313405E-001 1.544322446E-002 1.126561314E-002 2.027810181E+003 1.806702116E-003 3.729830496E-003
 4.485676765E+000 -5.404427182E-003 1.002001524E+000 1.297974288E-001 1.548124384E-002 1.129243337E-002 2.032637695E+003 1.809080364E-003 3.726620693E-003
 4.499783039E+000 -5.391935818E-003 1.001994371E+000 1.299632192E-001 1.551922783E-002 1.131923310E-002 2.037461670E+003 1.811434515E-003 3.723441623E-003
 4.513888836E+000 -5.379231181E-003 1.001987457E+000 1.301288009E-001 1.555717736E-002 1.134601235E-002 2.042281982E+003 1.813764451E-003 3.720292822E-003
 4.527995110E+000 -5.366314203E-003 1.001980782E+000 1.302942336E-001 1.559508778E-002 1.137276925E-002 2.047098145E+003 1.816070522E-003 3.717172425E-003
 4.542100906E+000 -5.353188608E-003 1.001974463E+000 1.304596364E-001 1.563295722E-002 1.139950193E-002 2.051910156E+003 1.818352495E-003 3.714078804E-003
 4.556207180E+000 -5.339858122E-003 1.001968384E+000 1.306251287E-001 1.567078382E-002 1.142621040E-002 2.056717773E+003 1.820609905E-003 3.711010795E-003
 4.570312023E+000 -5.326327868E-003 1.001962781E+000 1.307908595E-001 1.570856944E-002 1.145289466E-002 2.061520752E+003 1.822841004E-003 3.707967000E-003
 4.584417820E+000 -5.312604830E-003 1.001957417E+000 1.309569776E-001 1.574630663E-002 1.147955377E-002 2.066319336E+003 1.825043699E-003 3.704946488E-003
 4.598524094E+000 -5.298695527E-003 1.001952410E+000 1.311235726E-001 1.578399539E-002 1.150618680E-002 2.071113281E+003 1.827214262E-003 3.701947862E-003
 4.612629890E+000 -5.284609273E-003 1.001947761E+000 1.312907189E-001 1.582163572E-002 1.153279375E-002 2.075902832E+003 1.829347922E-003 3.698970191E-003
 4.626736164E+000 -5.270356312E-003 1.001943350E+000 1.314585358E-001 1.585923135E-002 1.155937649E-002 2.080687744E+003 1.831438742E-003 3.696013009E-003
 4.640841961E+000 -5.255945958E-003 1.001939297E+000 1.316270828E-001 1.589678414E-002 1.158593595E-002 2.085468506E+003 1.833480084E-003 3.693075618E-003
 4.654948235E+000 -5.241391249E-003 1.001935244E+000 1.317963898E-001 1.593429595E-002 1.161247306E-002 2.090245117E+003 1.835464616E-003 3.690157551E-003
 4.669054031E+000 -5.226704292E-003 1.001931429E+000 1.319664568E-001 1.597176865E-002 1.163898967E-002 2.095018066E+003 1.837384654E-003 3.687258344E-003
 4.683159828E+000 -5.211898126E-003 1.001927853E+000 1.321372688E-001 1.600920595E-002 1.166548952E-002 2.099788086E+003 1.839232282E-003 3.684377298E-003
 4.697266102E+000 -5.196986720E-003 1.001924515E+000 1.323087811E-001 1.604660973E-002 1.169197448E-002 2.104555176E+003 1.841000631E-003 3.681514645E-003
 4.711371899E+000 -5.181984510E-003 1.001920938E+000 1.324809194E-001 1.608397998E-002 1.171844825E-002 2.109320313E+003 1.842683065E-003 3.678669687E-003
 4.725477219E+000 -5.166906863E-003 1.001917124E+000 1.326535493E-001 1.612132415E-002 1.174491271E-002 2.114083740E+003 1.844274113E-003 3.675842192E-003
 4.739583015E+000 -5.151767749E-003 1.001913071E+000 1.328265667E-001 1.615864411E-002 1.177137159E-002 2.118846191E+003 1.845769584E-003 3.673031926E-003
 4.753688812E+000 -5.136581138E-003 1.001908779E+000 1.329998076E-001 1.619594544E-002 1.179782767E-002 2.123607910E+003 1.847167150E-003 3.670237958E-003
 4.767795086E+000 -5.121360533E-003 1.001904130E+000 1.331731081E-001 1.623323001E-002 1.182428561E-002 2.128370117E+003 1.848465647E-003 3.667459823E-003
 4.781900883E+000 -5.106118042E-003 1.001899242E+000 1.333463192E-001 1.627050340E-002 1.185074542E-002 2.133133057E+003 1.849665772E-003 3.664697055E-003
 4.796007156E+000 -5.090865307E-003 1.001894116E+000 1.335192472E-001 1.630776748E-002 1.187721081E-002 2.137896729E+003 1.850770088E-003 3.661948722E-003
 4.810112953E+000 -5.075613502E-003 1.001888514E+000 1.336917281E-001 1.634502597E-002 1.190368459E-002 2.142661621E+003 1.851782668E-003 3.659213893E-003
 4.824219227E+000 -5.060370080E-003 1.001882672E+000 1.338636279E-001 1.638228074E-002 1.193016674E-002 2.147428223E+003 1.852709334E-003 3.656491870E-003
 4.838325024E+000 -5.045142490E-003 1.001876354E+000 1.340347826E-001 1.641953178E-002 1.195665915E-002 2.152196777E+003 1.853557536E-003 3.653781489E-003
 4.852430820E+000 -5.029936321E-003 1.001869798E+000 1.342050731E-001 1.645678654E-002 1.198316365E-002 2.156967773E+003 1.854336122E-003 3.651082283E-003
 4.866536140E+000 -5.014757160E-003 1.001863003E+000 1.343744248E-001 1.649404503E-002 1.200968213E-002 2.161741455E+003 1.855055802E-003 3.648392856E-003
 4.880641937E+000 -4.999606404E-003 1.001855850E+000 1.345427781E-001 1.653131098E-002 1.203621365E-002 2.166517578E+003 1.855728566E-003 3.645713208E-003
 4.894748211E+000 -4.984486382E-003 1.001848578E+000 1.347101033E-001 1.656858996E-002 1.206276286E-002 2.171296631E+003 1.856367686E-003 3.643042408E-003
 4.908854008E+000 -4.969396628E-003 1.001841068E+000 1.348763853E-001 1.660588011E-002 1.208932884E-002 2.176079102E+003 1.856987947E-003 3.640379990E-003
 4.922959805E+000 -4.954337142E-003 1.001833200E+000 1.350416839E-001 1.664318889E-002 1.211591624E-002 2.180864746E+003 1.857605064E-003 3.637725487E-003
 4.937066078E+000 -4.939305130E-003 1.001825333E+000 1.352060735E-001 1.668052003E-002 1.214252692E-002 2.185654785E+003 1.858236268E-003 3.635079367E-003
 4.951171875E+000 -4.924298264E-003 1.001817226E+000 1.353696287E-001 1.671787910E-002 1.216916367E-002 2.190449219E+003 1.858899486E-003 3.632441163E-003
 4.965278149E+000 -4.909313284E-003 1.001808882E+000 1.355324388E-001 1.675527170E-002 1.219582837E-002 2.195249268E+003 1.859613112E-003 3.629811108E-003
 4.979383945E+000 -4.894345999E-003 1.001800537E+000 1.356946528E-001 1.679270528E-002 1.222252753E-002 2.200055420E+003 1.860396005E-003 3.627189435E-003
 4.993490219E+000 -4.879391752E-003 1.001792431E+000 1.358564347E-001 1.683018543E-002 1.224926487E-002 2.204868164E+003 1.861267490E-003 3.624576610E-003
 5.007595062E+000 -4.864445422E-003 1.001784325E+000 1.360179037E-001 1.686771959E-002 1.227604598E-002 2.209688477E+003 1.862246078E-003 3.621973330E-003
 5.021700859E+000 -4.849501885E-003 1.001776457E+000 1.361792088E-001 1.690530963E-002 1.230287366E-002 2.214517334E+003 1.863350277E-003 3.619380062E-003
 5.035807133E+000 -4.834556021E-003 1.001768589E+000 1.363405436E-001 1.694296487E-002 1.232975256E-002 2.219355225E+003 1.864597085E-003 3.616797272E-003
 5.049912930E+000 -4.819601774E-003 1.001760483E+000 1.365020275E-001 1.698068902E-002 1.235668734E-002 2.224203369E+003 1.866002451E-003 3.614224959E-003
 5.064019203E+000 -4.804634489E-003 1.001752138E+000 1.366637945E-001 1.701848209E-002 1.238368079E-002 2.229062012E+003 1.867580693E-003 3.611664288E-003
 5.078125000E+000 -4.789648578E-003 1.001743793E+000 1.368259788E-001 1.705635339E-002 1.241073571E-002 2.233931885E+003 1.869343920E-003 3.609115491E-003
 5.092230797E+000 -4.774639849E-003 1.001735687E+000 1.369886845E-001 1.709430292E-002 1.243785396E-002 2.238812988E+003 1.871302375E-003 3.606578335E-003
 5.106337070E+000 -4.759603646E-003 1.001727819E+000 1.371520162E-001 1.713233069E-002 1.246503647E-002 2.243706055E+003 1.873463625E-003 3.604052588E-003
 5.120442867E+000 -4.744535312E-003 1.001720190E+000 1.373160183E-001 1.717043296E-002 1.249228418E-002 2.248610840E+003 1.875832793E-003 3.601538483E-003
 5.134549141E+000 -4.729432985E-003 1.001712799E+000 1.374807954E-001 1.720861346E-002 1.251959521E-002 2.253526855E+003 1.878412324E-003 3.599036019E-003
 5.148654938E+000 -4.714292474E-003 1.001705766E+000 1.376463473E-001 1.724686660E-002 1.254696958E-002 2.258454346E+003 1.881202101E-003 3.596543800E-003
 5.162759781E+000 -4.699111450E-003 1.001699328E+000 1.378127038E-001 1.728519052E-002 1.257440448E-002 2.263392578E+003 1.884199213E-003 3.594061825E-003
 5.176866055E+000 -4.683888517E-003 1.001693487E+000 1.379799247E-001 1.732358336E-002 1.260189805E-002 2.268341309E+003 1.887397841E-003 3.591589630E-003
 5.190971851E+000 -4.668622278E-003 1.001688242E+000 1.381479949E-001 1.736203954E-002 1.262944657E-002 2.273300293E+003 1.890789601E-003 3.589125816E-003
 5.205078125E+000 -4.653311335E-003 1.001683831E+000 1.383168697E-001 1.740055159E-002 1.265704725E-002 2.278268311E+003 1.894363202E-003 3.586670151E-003
 5.219183922E+000 -4.637954291E-003 1.001680136E+000 1.384865493E-001 1.743911952E-002 1.268469729E-002 2.283245605E+003 1.898104791E-003 3.584221471E-003
 5.233290195E+000 -4.622551613E-003 1.001677036E+000 1.386569738E-001 1.747773774E-002 1.271239482E-002 2.288230957E+003 1.901997486E-003 3.581780009E-003
 5.247395992E+000 -4.607102368E-003 1.001674891E+000 1.388281286E-001 1.751640439E-002 1.274013426E-002 2.293223877E+003 1.906021731E-003 3.579344600E-003
 5.261501789E+000 -4.591605626E-003 1.001673698E+000 1.389999837E-001 1.755511202E-002 1.276791468E-002 2.298224121E+003 1.910155523E-003 3.576915246E-003
 5.275608063E+000 -4.576060455E-003 1.001673102E+000 1.391724646E-001 1.759386063E-002 1.279573329E-002 2.303231445E+003 1.914373832E-003 3.574491479E-003
 5.289713860E+000 -4.560465459E-003 1.001673222E+000 1.393455416E-001 1.763264835E-002 1.282358821E-002 2.308245361E+003 1.918649534E-003 3.572073299E-003
 5.303819180E+000 -4.544818774E-003 1.001674056E+000 1.395191699E-001 1.767146960E-002 1.285147760E-002 2.313265381E+003 1.922953175E-003 3.569661174E-003
 5.317924976E+000 -4.529118072E-003 1.001675367E+000 1.396932900E-001 1.771032438E-002 1.287939865E-002 2.318291016E+003 1.927253441E-003 3.567255335E-003
 5.332030773E+000 -4.513360560E-003 1.001676917E+000 1.398678422E-001 1.774920337E-002 1.290734764E-002 2.323321777E+003 1.931517851E-003 3.564856015E-003
 5.346137047E+000 -4.497543909E-003 1.001678705E+000 1.400427669E-001 1.778810471E-002 1.293532178E-002 2.328357178E+003 1.935713226E-003 3.562463913E-003
 5.360242844E+000 -4.481664859E-003 1.001680374E+000 1.402179599E-001 1.782702655E-002 1.296331733E-002 2.333396240E+003 1.939806039E-003 3.560079262E-003
 5.374349117E+000 -4.465719685E-003 1.001681805E+000 1.403933913E-001 1.786595583E-002 1.299132966E-002 2.338438477E+003 1.943763811E-003 3.557702526E-003
 5.388454914E+000 -4.449703265E-003 1.001682997E+000 1.405689567E-001 1.790489256E-002 1.301935408E-002 2.343483154E+003 1.947555807E-003 3.555333940E-003
 5.402561188E+000 -4.433611408E-003 1.001683712E+000 1.407445967E-001 1.794382185E-002 1.304738410E-002 2.348528564E+003 1.951153390E-003 3.552973270E-003
 5.416666985E+000 -4.417440854E-003 1.001683712E+000 1.409202516E-001 1.798273996E-002 1.307541039E-002 2.353573486E+003 1.954531763E-003 3.550620284E-003
 5.430772781E+000 -4.401187412E-003 1.001682997E+000 1.410958171E-001 1.802163385E-002 1.310342737E-002 2.358616943E+003 1.957669621E-003 3.548274748E-003
 5.444878101E+000 -4.384847358E-003 1.001681566E+000 1.412712336E-001 1.806049421E-002 1.313142758E-002 2.363656982E+003 1.960551366E-003 3.545936197E-003
 5.458983898E+000 -4.368416965E-003 1.001679182E+000 1.414463967E-001 1.809931174E-002 1.315940078E-002 2.368692383E+003 1.963166054E-003 3.543603700E-003
 5.473090172E+000 -4.351894371E-003 1.001675606E+000 1.416212618E-001 1.813807711E-002 1.318733953E-002 2.373721191E+003 1.965509262E-003 3.541275859E-003
 5.487195969E+000 -4.335276783E-003 1.001671076E+000 1.417957246E-001 1.817677543E-002 1.321523450E-002 2.378742188E+003 1.967581455E-003 3.538951743E-003
 5.501301765E+000 -4.318561405E-003 1.001665831E+000 1.419697702E-001 1.821539924E-002 1.324307732E-002 2.383753906E+003 1.969389850E-003 3.536629956E-003
 5.515408039E+000 -4.301748239E-003 1.001659751E+000 1.421433091E-001 1.825394109E-002 1.327086054E-002 2.388755371E+003 1.970947254E-003 3.534308635E-003
 5.529513836E+000 -4.284836352E-003 1.001652956E+000 1.423163116E-001 1.829239167E-002 1.329858042E-002 2.393744629E+003 1.972271129E-003 3.531986615E-003
 5.543620110E+000 -4.267827142E-003 1.001645565E+000 1.424887478E-001 1.833074912E-002 1.332622953E-002 2.398721680E+003 1.973383129E-003 3.529662499E-003
 5.557725906E+000 -4.250720609E-003 1.001637697E+000 1.426605582E-001 1.836900786E-002 1.335380785E-002 2.403685303E+003 1.974309096E-003 3.527334891E-003
 5.571832180E+000 -4.233518615E-003 1.001629472E+000 1.428317428E-001 1.840716973E-002 1.338130981E-002 2.408635742E+003 1.975076739E-003 3.525003325E-003
 5.585937977E+000 -4.216224886E-003 1.001621008E+000 1.430023313E-001 1.844523102E-002 1.340873912E-002 2.413572998E+003 1.975715393E-003 3.522666637E-003
 5.600042820E+000 -4.198840819E-003 1.001612186E+000 1.431722939E-001 1.848319918E-002 1.343609579E-002 2.418497314E+003 1.976254862E-003 3.520324826E-003
 5.614149094E+000 -4.181372002E-003 1.001603127E+000 1.433416456E-001 1.852107607E-002 1.346338540E-002 2.423409424E+003 1.976724248E-003 3.517977661E-003
 5.628254890E+000 -4.163821694E-003 1.001593828E+000 1.435104311E-001 1.855887100E-002 1.349061355E-002 2.428310303E+003 1.977150794E-003 3.515625838E-003
 5.642361164E+000 -4.146195017E-003 1.001584172E+000 1.436786652E-001 1.859658770E-002 1.351778582E-002 2.433201172E+003 1.977560110E-003 3.513269825E-003