TITLE     = "From CRS18: JFM(2018),847,28--70"
VARIABLES = "x"
"Cp_wall"
"Ue_tilde"
"delta_995"
"delta*"
"theta"
"Rtheta"
"gamma_r"
"C_f"
ZONE T="Case A (ref:038ib/laix200)"
 -9.495832443E+00 3.847868647E-04 9.983118773E-01 1.321486831E-01 2.331004478E-02 1.502900384E-02 6.011601562E+02 1.332813641E-03 4.805555567E-03
 -9.489062309E+00 3.610046115E-04 9.983208776E-01 1.323886663E-01 2.332301438E-02 1.504575834E-02 6.018303223E+02 1.331834355E-03 4.810230341E-03
 -9.482292175E+00 3.347785678E-04 9.983310699E-01 1.326285303E-01 2.333619073E-02 1.506260037E-02 6.025040283E+02 1.330522238E-03 4.814838991E-03
 -9.475521088E+00 3.111751284E-04 9.983425736E-01 1.328682452E-01 2.334957570E-02 1.507952623E-02 6.031810303E+02 1.328886021E-03 4.819378257E-03
 -9.468750000E+00 3.071816172E-04 9.983552694E-01 1.331078112E-01 2.336315624E-02 1.509652939E-02 6.038612061E+02 1.326938975E-03 4.823845346E-03
 -9.461978912E+00 3.149898257E-04 9.983690977E-01 1.333471537E-01 2.337692678E-02 1.511360239E-02 6.045440674E+02 1.324699260E-03 4.828237928E-03
 -9.455207825E+00 3.109963145E-04 9.983839393E-01 1.335862428E-01 2.339087054E-02 1.513073780E-02 6.052294922E+02 1.322187949E-03 4.832553677E-03
 -9.448436737E+00 2.891810145E-04 9.983996153E-01 1.338250190E-01 2.340498194E-02 1.514792629E-02 6.059169922E+02 1.319429721E-03 4.836792126E-03
 -9.441667557E+00 2.584250178E-04 9.984160662E-01 1.340634674E-01 2.341924608E-02 1.516515948E-02 6.066063232E+02 1.316450769E-03 4.840952344E-03
 -9.434896469E+00 2.230198734E-04 9.984331131E-01 1.343015283E-01 2.343364991E-02 1.518242806E-02 6.072971191E+02 1.313279034E-03 4.845033400E-03
 -9.428125381E+00 1.842172496E-04 9.984507561E-01 1.345392019E-01 2.344818413E-02 1.519972552E-02 6.079890747E+02 1.309942571E-03 4.849035293E-03
 -9.421354294E+00 1.414211147E-04 9.984687567E-01 1.347764432E-01 2.346283756E-02 1.521704718E-02 6.086819458E+02 1.306469669E-03 4.852958955E-03
 -9.414583206E+00 9.600236808E-05 9.984869957E-01 1.350132674E-01 2.347759902E-02 1.523438748E-02 6.093754883E+02 1.302887686E-03 4.856804851E-03
 -9.407812119E+00 5.421951209E-05 9.985054731E-01 1.352496594E-01 2.349246480E-02 1.525174174E-02 6.100697021E+02 1.299222931E-03 4.860575311E-03
 -9.401041985E+00 2.018525993E-05 9.985240698E-01 1.354856491E-01 2.350742370E-02 1.526910532E-02 6.107642212E+02 1.295500086E-03 4.864270333E-03
 -9.394270897E+00 2.005843271E-06 9.985426664E-01 1.357212365E-01 2.352247015E-02 1.528647542E-02 6.114589844E+02 1.291741850E-03 4.867892712E-03
 -9.387499809E+00 1.017167961E-05 9.985612035E-01 1.359565109E-01 2.353759296E-02 1.530384831E-02 6.121539307E+02 1.287969295E-03 4.871443380E-03
 -9.380728722E+00 3.139093315E-05 9.985793829E-01 1.361914724E-01 2.355278656E-02 1.532122213E-02 6.128488770E+02 1.284200931E-03 4.874924198E-03
 -9.373958588E+00 3.037765418E-05 9.985972643E-01 1.364261508E-01 2.356804349E-02 1.533859223E-02 6.135437012E+02 1.280453755E-03 4.878337961E-03
 -9.367187500E+00 4.211215128E-06 9.986144900E-01 1.366606206E-01 2.358335257E-02 1.535595488E-02 6.142382202E+02 1.276742318E-03 4.881686065E-03
 -9.360416412E+00 -1.921341027E-05 9.986310005E-01 1.368948817E-01 2.359870449E-02 1.537330542E-02 6.149321899E+02 1.273079426E-03 4.884970840E-03
 -9.353646278E+00 -3.077671136E-05 9.986466169E-01 1.371289343E-01 2.361408807E-02 1.539063826E-02 6.156254883E+02 1.269475440E-03 4.888194613E-03
 -9.346875191E+00 -4.657194222E-05 9.986612201E-01 1.373627782E-01 2.362949401E-02 1.540794596E-02 6.163179321E+02 1.265938743E-03 4.891359247E-03
 -9.340104103E+00 -7.077142800E-05 9.986746311E-01 1.375964135E-01 2.364490926E-02 1.542522572E-02 6.170091553E+02 1.262475736E-03 4.894466139E-03
 -9.333333015E+00 -9.342119301E-05 9.986866713E-01 1.378297806E-01 2.366032638E-02 1.544247102E-02 6.176989746E+02 1.259089913E-03 4.897516221E-03
 -9.326562881E+00 -1.092164239E-04 9.986974001E-01 1.380628347E-01 2.367573418E-02 1.545967348E-02 6.183870850E+02 1.255782321E-03 4.900510889E-03
 -9.319791794E+00 -1.272170193E-04 9.987065792E-01 1.382955015E-01 2.369112708E-02 1.547683123E-02 6.190733643E+02 1.252551679E-03 4.903451540E-03
 -9.313020706E+00 -1.607744343E-04 9.987142086E-01 1.385277063E-01 2.370650135E-02 1.549393870E-02 6.197576904E+02 1.249393215E-03 4.906339571E-03
 -9.306249619E+00 -2.054183133E-04 9.987204075E-01 1.387593597E-01 2.372185513E-02 1.551099308E-02 6.204398193E+02 1.246299478E-03 4.909176379E-03
 -9.299478531E+00 -2.402274258E-04 9.987252355E-01 1.389903724E-01 2.373719215E-02 1.552799530E-02 6.211199951E+02 1.243259525E-03 4.911961034E-03
 -9.292707443E+00 -2.522079740E-04 9.987289310E-01 1.392206401E-01 2.375251427E-02 1.554494724E-02 6.217980347E+02 1.240259502E-03 4.914695397E-03
 -9.285937309E+00 -2.408234723E-04 9.987316132E-01 1.394501328E-01 2.376783639E-02 1.556185260E-02 6.224742432E+02 1.237282064E-03 4.917379003E-03
 -9.279167175E+00 -2.175776608E-04 9.987335205E-01 1.396788061E-01 2.378316596E-02 1.557871792E-02 6.231488647E+02 1.234307187E-03 4.920011386E-03
 -9.272396088E+00 -2.048222668E-04 9.987348318E-01 1.399066150E-01 2.379852533E-02 1.559555158E-02 6.238221436E+02 1.231312752E-03 4.922593012E-03
 -9.265625000E+00 -2.060143597E-04 9.987359047E-01 1.401335597E-01 2.381392755E-02 1.561236382E-02 6.244946289E+02 1.228273963E-03 4.925123416E-03
 -9.258853912E+00 -2.020208485E-04 9.987370968E-01 1.403596997E-01 2.382939495E-02 1.562916674E-02 6.251667480E+02 1.225165324E-03 4.927602597E-03
 -9.252082825E+00 -1.933781750E-04 9.987386465E-01 1.405850649E-01 2.384494618E-02 1.564597338E-02 6.258389893E+02 1.221960410E-03 4.930030555E-03
 -9.245311737E+00 -2.054183133E-04 9.987407923E-01 1.408097893E-01 2.386060357E-02 1.566279680E-02 6.265118408E+02 1.218633261E-03 4.932405427E-03
 -9.238542557E+00 -2.479760442E-04 9.987436533E-01 1.410339475E-01 2.387638390E-02 1.567964442E-02 6.271857910E+02 1.215159195E-03 4.934726749E-03
 -9.231771469E+00 -3.001897130E-04 9.987475276E-01 1.412576735E-01 2.389230579E-02 1.569653302E-02 6.278613281E+02 1.211515744E-03 4.936994985E-03
 -9.225000381E+00 -3.298132215E-04 9.987524748E-01 1.414811164E-01 2.390837856E-02 1.571347006E-02 6.285388184E+02 1.207683585E-03 4.939209670E-03
 -9.218229294E+00 -3.280250821E-04 9.987585545E-01 1.417043805E-01 2.392461710E-02 1.573046297E-02 6.292185059E+02 1.203647349E-03 4.941370338E-03
 -9.211458206E+00 -3.271906171E-04 9.987657666E-01 1.419275999E-01 2.394102328E-02 1.574751921E-02 6.299007568E+02 1.199396676E-03 4.943476524E-03
 -9.204687119E+00 -3.524033818E-04 9.987740517E-01 1.421508491E-01 2.395759895E-02 1.576463878E-02 6.305855713E+02 1.194926328E-03 4.945529159E-03
 -9.197916985E+00 -3.856031690E-04 9.987833500E-01 1.423742473E-01 2.397434413E-02 1.578182541E-02 6.312729492E+02 1.190236770E-03 4.947528243E-03
 -9.191145897E+00 -4.148094449E-04 9.987934828E-01 1.425977796E-01 2.399124950E-02 1.579907350E-02 6.319628906E+02 1.185334520E-03 4.949474707E-03
 -9.184374809E+00 -4.533736501E-04 9.988042116E-01 1.428214610E-01 2.400830947E-02 1.581637934E-02 6.326552124E+02 1.180231920E-03 4.951368086E-03
 -9.177603722E+00 -4.940240178E-04 9.988153577E-01 1.430452913E-01 2.402550727E-02 1.583373919E-02 6.333495483E+02 1.174946781E-03 4.953209776E-03
 -9.170833588E+00 -5.089847837E-04 9.988268018E-01 1.432691813E-01 2.404283360E-02 1.585114002E-02 6.340456543E+02 1.169502037E-03 4.955000244E-03
 -9.164062500E+00 -4.914014135E-04 9.988384247E-01 1.434930265E-01 2.406027354E-02 1.586857438E-02 6.347430420E+02 1.163925044E-03 4.956739023E-03
 -9.157291412E+00 -4.620163236E-04 9.988499880E-01 1.437167227E-01 2.407781035E-02 1.588603482E-02 6.354412842E+02 1.158246538E-03 4.958427045E-03
 -9.150521278E+00 -4.471747670E-04 9.988615513E-01 1.439401507E-01 2.409543283E-02 1.590350643E-02 6.361401367E+02 1.152499812E-03 4.960064311E-03
 -9.143750191E+00 -4.531948362E-04 9.988728762E-01 1.441631615E-01 2.411312796E-02 1.592098176E-02 6.368392334E+02 1.146719791E-03 4.961651284E-03
 -9.136979103E+00 -4.589764867E-04 9.988840222E-01 1.443856210E-01 2.413088456E-02 1.593845338E-02 6.375380859E+02 1.140941633E-03 4.963187501E-03
 -9.130208015E+00 -4.577843938E-04 9.988950491E-01 1.446074247E-01 2.414869890E-02 1.595591567E-02 6.382365723E+02 1.135200378E-03 4.964673426E-03
 -9.123437881E+00 -4.688112531E-04 9.989058971E-01 1.448284686E-01 2.416656166E-02 1.597335935E-02 6.389343262E+02 1.129529322E-03 4.966108128E-03
 -9.116666794E+00 -4.927723203E-04 9.989166856E-01 1.450487077E-01 2.418446913E-02 1.599078439E-02 6.396313477E+02 1.123959548E-03 4.967492074E-03
 -9.109895706E+00 -5.150048528E-04 9.989275336E-01 1.452681124E-01 2.420241758E-02 1.600818709E-02 6.403273926E+02 1.118519227E-03 4.968824331E-03
 -9.103124619E+00 -5.386082921E-04 9.989385009E-01 1.454866976E-01 2.422041260E-02 1.602556556E-02 6.410225220E+02 1.113233389E-03 4.970105365E-03
 -9.096353531E+00 -5.679933820E-04 9.989496469E-01 1.457045078E-01 2.423845604E-02 1.604292169E-02 6.417167969E+02 1.108123222E-03 4.971333779E-03
 -9.089582443E+00 -5.921928678E-04 9.989609718E-01 1.459216177E-01 2.425654605E-02 1.606025547E-02 6.424102173E+02 1.103205956E-03 4.972509108E-03
 -9.082812309E+00 -6.079880986E-04 9.989725947E-01 1.461381316E-01 2.427468821E-02 1.607757248E-02 6.431028442E+02 1.098495326E-03 4.973631352E-03
 -9.076042175E+00 -6.185977254E-04 9.989844561E-01 1.463541687E-01 2.429287881E-02 1.609487087E-02 6.437947998E+02 1.094001229E-03 4.974700511E-03
 -9.069271088E+00 -6.255714688E-04 9.989964366E-01 1.465698779E-01 2.431111783E-02 1.611215249E-02 6.444861450E+02 1.089730067E-03 4.975716583E-03
 -9.062500000E+00 -6.311743055E-04 9.990085363E-01 1.467853487E-01 2.432940528E-02 1.612942293E-02 6.451768799E+02 1.085685217E-03 4.976679571E-03
 -9.055728912E+00 -6.367771421E-04 9.990206361E-01 1.470007449E-01 2.434773371E-02 1.614667848E-02 6.458670044E+02 1.081866911E-03 4.977589473E-03
 -9.048957825E+00 -6.461946759E-04 9.990325570E-01 1.472161263E-01 2.436609752E-02 1.616391353E-02 6.465563965E+02 1.078273170E-03 4.978446290E-03
 -9.042186737E+00 -6.665794645E-04 9.990441799E-01 1.474315673E-01 2.438448742E-02 1.618112624E-02 6.472449951E+02 1.074899803E-03 4.979250953E-03
 -9.035417557E+00 -6.883947644E-04 9.990553260E-01 1.476470828E-01 2.440289408E-02 1.619831473E-02 6.479324341E+02 1.071741106E-03 4.980004393E-03
 -9.028646469E+00 -6.941764150E-04 9.990658760E-01 1.478626728E-01 2.442130633E-02 1.621546596E-02 6.486185913E+02 1.068789396E-03 4.980706610E-03
 -9.021875381E+00 -6.877987180E-04 9.990756512E-01 1.480782628E-01 2.443971112E-02 1.623257808E-02 6.493031006E+02 1.066036057E-03 4.981358536E-03
 -9.015104294E+00 -6.817786489E-04 9.990847111E-01 1.482937336E-01 2.445809543E-02 1.624963991E-02 6.499855347E+02 1.063471078E-03 4.981961101E-03
 -9.008333206E+00 -6.817786489E-04 9.990928173E-01 1.485090107E-01 2.447644807E-02 1.626664400E-02 6.506656494E+02 1.061083516E-03 4.982515704E-03
 -9.001562119E+00 -6.926266942E-04 9.990999699E-01 1.487239152E-01 2.449476346E-02 1.628358103E-02 6.513431396E+02 1.058861380E-03 4.983023275E-03
 -8.994791985E+00 -7.112233434E-04 9.991063476E-01 1.489382982E-01 2.451303229E-02 1.630044356E-02 6.520176392E+02 1.056791865E-03 4.983484745E-03
 -8.988020897E+00 -7.233826909E-04 9.991118908E-01 1.491519660E-01 2.453125082E-02 1.631722972E-02 6.526890869E+02 1.054860884E-03 4.983900115E-03
 -8.981249809E+00 -7.242171559E-04 9.991168380E-01 1.493647695E-01 2.454941720E-02 1.633393019E-02 6.533571777E+02 1.053053420E-03 4.984272178E-03
 -8.974478722E+00 -7.180182729E-04 9.991211891E-01 1.495765597E-01 2.456753701E-02 1.635054871E-02 6.540219116E+02 1.051353524E-03 4.984601401E-03
 -8.967708588E+00 -7.121770177E-04 9.991252422E-01 1.497872174E-01 2.458561026E-02 1.636708528E-02 6.546833496E+02 1.049743849E-03 4.984889179E-03
 -8.960937500E+00 -7.198064122E-04 9.991290569E-01 1.499966830E-01 2.460364997E-02 1.638354361E-02 6.553416138E+02 1.048206235E-03 4.985136446E-03
 -8.954166412E+00 -7.422177587E-04 9.991329908E-01 1.502048969E-01 2.462166175E-02 1.639992557E-02 6.559968872E+02 1.046721009E-03 4.985343665E-03
 -8.947396278E+00 -7.649867330E-04 9.991369843E-01 1.504118741E-01 2.463965490E-02 1.641624048E-02 6.566495361E+02 1.045267796E-03 4.985513166E-03
 -8.940625191E+00 -7.826297078E-04 9.991413355E-01 1.506177038E-01 2.465764619E-02 1.643250138E-02 6.572999268E+02 1.043824712E-03 4.985645413E-03
 -8.933854103E+00 -8.008091245E-04 9.991459250E-01 1.508224458E-01 2.467564493E-02 1.644871198E-02 6.579484863E+02 1.042369520E-03 4.985740874E-03
 -8.927083015E+00 -8.160083089E-04 9.991508722E-01 1.510262489E-01 2.469366416E-02 1.646488532E-02 6.585954590E+02 1.040879171E-03 4.985801876E-03
 -8.920312881E+00 -8.198230062E-04 9.991561770E-01 1.512292624E-01 2.471170761E-02 1.648103073E-02 6.592412109E+02 1.039330382E-03 4.985828884E-03
 -8.913541794E+00 -8.161871228E-04 9.991617203E-01 1.514316797E-01 2.472978458E-02 1.649715379E-02 6.598862305E+02 1.037699752E-03 4.985823296E-03
 -8.906770706E+00 -8.166043554E-04 9.991673827E-01 1.516336799E-01 2.474789508E-02 1.651326567E-02 6.605307007E+02 1.035964582E-03 4.985786043E-03
 -8.899999619E+00 -8.233992849E-04 9.991729259E-01 1.518354714E-01 2.476604097E-02 1.652936824E-02 6.611748657E+02 1.034103218E-03 4.985718988E-03
 -8.893228531E+00 -8.310286794E-04 9.991782904E-01 1.520372033E-01 2.478422038E-02 1.654546708E-02 6.618187256E+02 1.032095635E-03 4.985622130E-03
 -8.886457443E+00 -8.374063764E-04 9.991832972E-01 1.522390246E-01 2.480242774E-02 1.656155847E-02 6.624625244E+02 1.029924373E-03 4.985497333E-03
 -8.879687309E+00 -8.453933988E-04 9.991877079E-01 1.524411142E-01 2.482065931E-02 1.657764614E-02 6.631060791E+02 1.027574763E-03 4.985345528E-03
 -8.872917175E+00 -8.536188398E-04 9.991912246E-01 1.526435018E-01 2.483890392E-02 1.659372821E-02 6.637493896E+02 1.025035861E-03 4.985167645E-03
 -8.866146088E+00 -8.614270482E-04 9.991937876E-01 1.528462768E-01 2.485715598E-02 1.660979912E-02 6.643923340E+02 1.022300916E-03 4.984964151E-03
 -8.859375000E+00 -8.660166059E-04 9.991953373E-01 1.530494690E-01 2.487540431E-02 1.662585698E-02 6.650346069E+02 1.019367832E-03 4.984735511E-03
 -8.852603912E+00 -8.577911649E-04 9.991958141E-01 1.532530487E-01 2.489364520E-02 1.664189622E-02 6.656761475E+02 1.016239519E-03 4.984482192E-03
 -8.845832825E+00 -8.385984693E-04 9.991952181E-01 1.534570009E-01 2.491187677E-02 1.665791310E-02 6.663167725E+02 1.012923662E-03 4.984204192E-03
 -8.839061737E+00 -8.251874242E-04 9.991935492E-01 1.536612511E-01 2.493008971E-02 1.667390391E-02 6.669562988E+02 1.009433297E-03 4.983902443E-03
 -8.832292557E+00 -8.204190526E-04 9.991911054E-01 1.538657248E-01 2.494829148E-02 1.668986678E-02 6.675946655E+02 1.005785773E-03 4.983576946E-03
 -8.825521469E+00 -8.217899594E-04 9.991879463E-01 1.540703326E-01 2.496648021E-02 1.670579612E-02 6.682318115E+02 1.002002275E-03 4.983226303E-03
 -8.818750381E+00 -8.447973523E-04 9.991841316E-01 1.542749852E-01 2.498466335E-02 1.672169194E-02 6.688676758E+02 9.981072508E-04 4.982850514E-03
 -8.811979294E+00 -8.902160916E-04 9.991800785E-01 1.544795781E-01 2.500284836E-02 1.673755795E-02 6.695023193E+02 9.941275930E-04 4.982450046E-03
 -8.805208206E+00 -9.256212506E-04 9.991759062E-01 1.546840370E-01 2.502104267E-02 1.675339416E-02 6.701358643E+02 9.900908917E-04 4.982024431E-03
 -8.798437119E+00 -9.263961110E-04 9.991717935E-01 1.548882723E-01 2.503925562E-02 1.676920801E-02 6.707683105E+02 9.860249702E-04 4.981571808E-03
 -8.791666985E+00 -9.023754392E-04 9.991680384E-01 1.550922394E-01 2.505750209E-02 1.678500138E-02 6.713999023E+02 9.819564875E-04 4.981093109E-03
 -8.784895897E+00 -8.763878141E-04 9.991648197E-01 1.552958786E-01 2.507578582E-02 1.680077612E-02 6.720308838E+02 9.779096581E-04 4.980586469E-03
 -8.778124809E+00 -8.611886296E-04 9.991620779E-01 1.554991901E-01 2.509412169E-02 1.681653969E-02 6.726613770E+02 9.739054367E-04 4.980051890E-03
 -8.771353722E+00 -8.490292821E-04 9.991600513E-01 1.557021141E-01 2.511251345E-02 1.683229581E-02 6.732915649E+02 9.699610528E-04 4.979488440E-03
 -8.764583588E+00 -8.350221906E-04 9.991587400E-01 1.559046805E-01 2.513097227E-02 1.684804633E-02 6.739216309E+02 9.660892538E-04 4.978896119E-03
 -8.757812500E+00 -8.362142835E-04 9.991582036E-01 1.561069340E-01 2.514949813E-02 1.686380059E-02 6.745517578E+02 9.622981306E-04 4.978274927E-03
 -8.751041412E+00 -8.660166059E-04 9.991583824E-01 1.563088596E-01 2.516810223E-02 1.687956043E-02 6.751820679E+02 9.585912921E-04 4.977623001E-03
 -8.744271278E+00 -9.151904378E-04 9.991593361E-01 1.565104723E-01 2.518678643E-02 1.689532772E-02 6.758127441E+02 9.549679817E-04 4.976940341E-03
 -8.737500191E+00 -9.687750135E-04 9.991608858E-01 1.567118168E-01 2.520555072E-02 1.691110805E-02 6.764439697E+02 9.514238336E-04 4.976227880E-03
 -8.730729103E+00 -1.002988080E-03 9.991631508E-01 1.569129229E-01 2.522439882E-02 1.692690700E-02 6.770758667E+02 9.479514556E-04 4.975484218E-03
 -8.723958015E+00 -9.963719640E-04 9.991658926E-01 1.571138203E-01 2.524333075E-02 1.694272272E-02 6.777084961E+02 9.445412434E-04 4.974709358E-03
 -8.717187881E+00 -9.678213391E-04 9.991692305E-01 1.573144943E-01 2.526235022E-02 1.695856079E-02 6.783420410E+02 9.411824867E-04 4.973903298E-03
 -8.710416794E+00 -9.495823178E-04 9.991730452E-01 1.575149745E-01 2.528145537E-02 1.697442308E-02 6.789765625E+02 9.378640098E-04 4.973065108E-03
 -8.703645706E+00 -9.399859700E-04 9.991772175E-01 1.577152610E-01 2.530064434E-02 1.699031144E-02 6.796121826E+02 9.345750441E-04 4.972194321E-03
 -8.696874619E+00 -9.297935758E-04 9.991818666E-01 1.579153687E-01 2.531992272E-02 1.700622588E-02 6.802489624E+02 9.313061601E-04 4.971290939E-03
 -8.690103531E+00 -9.290187154E-04 9.991868734E-01 1.581152678E-01 2.533929422E-02 1.702217385E-02 6.808869019E+02 9.280494414E-04 4.970354028E-03
 -8.683332443E+00 -9.349791799E-04 9.991922379E-01 1.583149731E-01 2.535875887E-02 1.703815535E-02 6.815261230E+02 9.247993003E-04 4.969383590E-03
 -8.676562309E+00 -9.314029012E-04 9.991981983E-01 1.585144401E-01 2.537831292E-02 1.705416851E-02 6.821665649E+02 9.215523023E-04 4.968377762E-03
 -8.669792175E+00 -9.200184140E-04 9.992047548E-01 1.587136388E-01 2.539794892E-02 1.707020774E-02 6.828081055E+02 9.183075745E-04 4.967336543E-03
 -8.663021088E+00 -9.163825307E-04 9.992117882E-01 1.589125693E-01 2.541766688E-02 1.708627120E-02 6.834506226E+02 9.150664555E-04 4.966259003E-03
 -8.656250000E+00 -9.250252042E-04 9.992191792E-01 1.591111720E-01 2.543746121E-02 1.710235327E-02 6.840939331E+02 9.118326707E-04 4.965145141E-03
 -8.649478912E+00 -9.396283422E-04 9.992268682E-01 1.593094468E-01 2.545731887E-02 1.711845025E-02 6.847377930E+02 9.086116916E-04 4.963994958E-03
 -8.642707825E+00 -9.601919446E-04 9.992348552E-01 1.595073491E-01 2.547723427E-02 1.713455282E-02 6.853818970E+02 9.054105030E-04 4.962806590E-03
 -8.635936737E+00 -9.955971036E-04 9.992430210E-01 1.597048342E-01 2.549719065E-02 1.715065166E-02 6.860258789E+02 9.022376616E-04 4.961581901E-03
 -8.629167557E+00 -1.037022332E-03 9.992513657E-01 1.599018574E-01 2.551718056E-02 1.716673560E-02 6.866693115E+02 8.991024806E-04 4.960320890E-03
 -8.622396469E+00 -1.056393841E-03 9.992597103E-01 1.600983888E-01 2.553718537E-02 1.718279347E-02 6.873117676E+02 8.960151463E-04 4.959024489E-03
 -8.615625381E+00 -1.049002865E-03 9.992679954E-01 1.602944136E-01 2.555718645E-02 1.719881594E-02 6.879526367E+02 8.929862524E-04 4.957692698E-03
 -8.608854294E+00 -1.041611889E-03 9.992759228E-01 1.604898572E-01 2.557716891E-02 1.721478999E-02 6.885915527E+02 8.900268003E-04 4.956326447E-03
 -8.602083206E+00 -1.049002865E-03 9.992835522E-01 1.606847048E-01 2.559711970E-02 1.723070629E-02 6.892281494E+02 8.871479658E-04 4.954927601E-03
 -8.595312119E+00 -1.058420399E-03 9.992908239E-01 1.608789563E-01 2.561702579E-02 1.724655367E-02 6.898620605E+02 8.843606338E-04 4.953498486E-03
 -8.588541985E+00 -1.057407120E-03 9.992974401E-01 1.610725671E-01 2.563687414E-02 1.726232655E-02 6.904929810E+02 8.816757472E-04 4.952040035E-03
 -8.581770897E+00 -1.041015843E-03 9.993034601E-01 1.612655520E-01 2.565665729E-02 1.727802120E-02 6.911207275E+02 8.791037835E-04 4.950554110E-03
 -8.574999809E+00 -1.010975102E-03 9.993088841E-01 1.614579260E-01 2.567636967E-02 1.729363389E-02 6.917452393E+02 8.766544051E-04 4.949043505E-03
 -8.568228722E+00 -9.830205236E-04 9.993137121E-01 1.616497040E-01 2.569600753E-02 1.730916463E-02 6.923665161E+02 8.743365761E-04 4.947509617E-03
 -8.561458588E+00 -9.774176870E-04 9.993178248E-01 1.618409306E-01 2.571557462E-02 1.732461713E-02 6.929846191E+02 8.721579798E-04 4.945954308E-03
 -8.554687500E+00 -9.951798711E-04 9.993213415E-01 1.620316505E-01 2.573507652E-02 1.733999699E-02 6.935997314E+02 8.701247862E-04 4.944380838E-03
 -8.547916412E+00 -1.014014939E-03 9.993242025E-01 1.622219533E-01 2.575452253E-02 1.735531166E-02 6.942123413E+02 8.682414191E-04 4.942791071E-03
 -8.541146278E+00 -1.019617775E-03 9.993265867E-01 1.624118984E-01 2.577392012E-02 1.737057045E-02 6.948226929E+02 8.665102068E-04 4.941187799E-03
 -8.534375191E+00 -1.024386147E-03 9.993283749E-01 1.626015902E-01 2.579328418E-02 1.738578826E-02 6.954313354E+02 8.649312076E-04 4.939573817E-03
 -8.527604103E+00 -1.043817261E-03 9.993298650E-01 1.627911329E-01 2.581262961E-02 1.740097255E-02 6.960387573E+02 8.635020931E-04 4.937950522E-03
 -8.520833015E+00 -1.072785119E-03 9.993309975E-01 1.629806012E-01 2.583197504E-02 1.741614006E-02 6.966454468E+02 8.622179739E-04 4.936321639E-03
 -8.514062881E+00 -1.097401837E-03 9.993319511E-01 1.631700993E-01 2.585133165E-02 1.743130200E-02 6.972519531E+02 8.610717487E-04 4.934687633E-03
 -8.507291794E+00 -1.104613999E-03 9.993327856E-01 1.633596867E-01 2.587071434E-02 1.744646952E-02 6.978586426E+02 8.600541041E-04 4.933051299E-03
 -8.500520706E+00 -1.092812279E-03 9.993335009E-01 1.635494232E-01 2.589013614E-02 1.746165380E-02 6.984659424E+02 8.591537480E-04 4.931414966E-03
 -8.493749619E+00 -1.086971024E-03 9.993343353E-01 1.637393832E-01 2.590960823E-02 1.747686043E-02 6.990742798E+02 8.583578747E-04 4.929780029E-03
 -8.486978531E+00 -1.111408928E-03 9.993352890E-01 1.639295369E-01 2.592914179E-02 1.749209687E-02 6.996837158E+02 8.576526307E-04 4.928147420E-03
 -8.480207443E+00 -1.146814087E-03 9.993363619E-01 1.641198993E-01 2.594873682E-02 1.750736311E-02 7.002944336E+02 8.570236387E-04 4.926519003E-03
 -8.473437309E+00 -1.159807900E-03 9.993377924E-01 1.643103957E-01 2.596839517E-02 1.752266102E-02 7.009063721E+02 8.564564632E-04 4.924895242E-03
 -8.466667175E+00 -1.151224831E-03 9.993395209E-01 1.645009816E-01 2.598811872E-02 1.753798686E-02 7.015194092E+02 8.559367852E-04 4.923276603E-03
 -8.459896088E+00 -1.132210949E-03 9.993416071E-01 1.646915227E-01 2.600789815E-02 1.755333692E-02 7.021334229E+02 8.554513333E-04 4.921664018E-03
 -8.453125000E+00 -1.101812581E-03 9.993440509E-01 1.648819149E-01 2.602772787E-02 1.756870560E-02 7.027481079E+02 8.549878839E-04 4.920057487E-03
 -8.446353912E+00 -1.072606305E-03 9.993468523E-01 1.650720090E-01 2.604759485E-02 1.758407801E-02 7.033630371E+02 8.545355522E-04 4.918457009E-03
 -8.439582825E+00 -1.066586236E-03 9.993500113E-01 1.652616560E-01 2.606748790E-02 1.759944856E-02 7.039778442E+02 8.540848503E-04 4.916861653E-03
 -8.432811737E+00 -1.081606606E-03 9.993533492E-01 1.654506773E-01 2.608739026E-02 1.761480048E-02 7.045920410E+02 8.536278037E-04 4.915271886E-03
 -8.426042557E+00 -1.100620488E-03 9.993568659E-01 1.656389534E-01 2.610728890E-02 1.763012819E-02 7.052050781E+02 8.531581261E-04 4.913686309E-03
 -8.419271469E+00 -1.124223927E-03 9.993604422E-01 1.658263803E-01 2.612716705E-02 1.764541864E-02 7.058166504E+02 8.526707534E-04 4.912105389E-03
 -8.412500381E+00 -1.153191784E-03 9.993638992E-01 1.660128534E-01 2.614701167E-02 1.766066067E-02 7.064263306E+02 8.521621348E-04 4.910528660E-03
 -8.405729294E+00 -1.166602829E-03 9.993672371E-01 1.661982983E-01 2.616681159E-02 1.767585054E-02 7.070339355E+02 8.516296512E-04 4.908954725E-03
 -8.398958206E+00 -1.155993203E-03 9.993702173E-01 1.663827151E-01 2.618655749E-02 1.769098639E-02 7.076392822E+02 8.510717307E-04 4.907383583E-03
 -8.392187119E+00 -1.145383576E-03 9.993727207E-01 1.665661335E-01 2.620624378E-02 1.770605892E-02 7.082421875E+02 8.504877333E-04 4.905815236E-03
 -8.385416985E+00 -1.150211552E-03 9.993747473E-01 1.667486429E-01 2.622586861E-02 1.772107184E-02 7.088428345E+02 8.498776006E-04 4.904249683E-03
 -8.378645897E+00 -1.158377388E-03 9.993760586E-01 1.669303626E-01 2.624543197E-02 1.773603261E-02 7.094412842E+02 8.492420893E-04 4.902686924E-03
 -8.371874809E+00 -1.160225132E-03 9.993767738E-01 1.671114266E-01 2.626494318E-02 1.775094680E-02 7.100379639E+02 8.485824219E-04 4.901127890E-03
 -8.365103722E+00 -1.158794621E-03 9.993767142E-01 1.672920585E-01 2.628441155E-02 1.776582375E-02 7.106330566E+02 8.479006356E-04 4.899573512E-03
 -8.358333588E+00 -1.153609017E-03 9.993760586E-01 1.674724072E-01 2.630385384E-02 1.778067835E-02 7.112271729E+02 8.471991168E-04 4.898024257E-03
 -8.351562500E+00 -1.144608716E-03 9.993748069E-01 1.676527113E-01 2.632328309E-02 1.779552177E-02 7.118209229E+02 8.464811253E-04 4.896479659E-03
 -8.344791412E+00 -1.140019158E-03 9.993730783E-01 1.678331643E-01 2.634272166E-02 1.781037077E-02 7.124148560E+02 8.457502699E-04 4.894941114E-03
 -8.338021278E+00 -1.148423413E-03 9.993709326E-01 1.680139154E-01 2.636218816E-02 1.782524027E-02 7.130096436E+02 8.450109744E-04 4.893409088E-03
 -8.331250191E+00 -1.168808201E-03 9.993686676E-01 1.681950986E-01 2.638170123E-02 1.784014329E-02 7.136057129E+02 8.442678954E-04 4.891883582E-03
 -8.324479103E+00 -1.187404850E-03 9.993665218E-01 1.683767885E-01 2.640128136E-02 1.785509288E-02 7.142036133E+02 8.435263298E-04 4.890365526E-03
 -8.317708015E+00 -1.191577176E-03 9.993646145E-01 1.685589999E-01 2.642094530E-02 1.787009463E-02 7.148037720E+02 8.427915163E-04 4.888854921E-03
 -8.310937881E+00 -1.185974339E-03 9.993630648E-01 1.687417030E-01 2.644070424E-02 1.788515970E-02 7.154064331E+02 8.420689264E-04 4.887351301E-03
 -8.304166794E+00 -1.180192688E-03 9.993621707E-01 1.689247787E-01 2.646056563E-02 1.790028811E-02 7.160115967E+02 8.413635660E-04 4.885854200E-03
 -8.297395706E+00 -1.172980526E-03 9.993619919E-01 1.691080630E-01 2.648053505E-02 1.791547984E-02 7.166192627E+02 8.406799752E-04 4.884363618E-03
 -8.290624619E+00 -1.159807900E-03 9.993627071E-01 1.692913473E-01 2.650060691E-02 1.793072745E-02 7.172291870E+02 8.400215302E-04 4.882878158E-03
 -8.283853531E+00 -1.140376786E-03 9.993642569E-01 1.694744229E-01 2.652077191E-02 1.794602536E-02 7.178410645E+02 8.393905009E-04 4.881397355E-03
 -8.277082443E+00 -1.124223927E-03 9.993666410E-01 1.696569622E-01 2.654101886E-02 1.796135679E-02 7.184542847E+02 8.387875278E-04 4.879919346E-03
 -8.270312309E+00 -1.126786927E-03 9.993698597E-01 1.698387414E-01 2.656132728E-02 1.797670685E-02 7.190682983E+02 8.382115047E-04 4.878443666E-03
 -8.263542175E+00 -1.149377087E-03 9.993737936E-01 1.700194776E-01 2.658167854E-02 1.799206063E-02 7.196824341E+02 8.376589394E-04 4.876968451E-03
 -8.256771088E+00 -1.172980526E-03 9.993783236E-01 1.701989472E-01 2.660204843E-02 1.800739765E-02 7.202959595E+02 8.371243021E-04 4.875492770E-03
 -8.250000000E+00 -1.182815293E-03 9.993832111E-01 1.703769565E-01 2.662241273E-02 1.802270114E-02 7.209082031E+02 8.365996182E-04 4.874014761E-03
 -8.243228912E+00 -1.175781945E-03 9.993882775E-01 1.705533862E-01 2.664274722E-02 1.803795993E-02 7.215184326E+02 8.360747015E-04 4.872533958E-03
 -8.236457825E+00 -1.161596039E-03 9.993932247E-01 1.707281768E-01 2.666303143E-02 1.805315353E-02 7.221262207E+02 8.355370956E-04 4.871048499E-03
 -8.229686737E+00 -1.162370900E-03 9.993978739E-01 1.709013581E-01 2.668324858E-02 1.806827448E-02 7.227310181E+02 8.349725977E-04 4.869557917E-03
 -8.222917557E+00 -1.180371502E-03 9.994020462E-01 1.710729599E-01 2.670338377E-02 1.808331162E-02 7.233326416E+02 8.343654918E-04 4.868061282E-03
 -8.216146469E+00 -1.193424920E-03 9.994055629E-01 1.712431610E-01 2.672342584E-02 1.809826680E-02 7.239307861E+02 8.336992469E-04 4.866558127E-03
 -8.209375381E+00 -1.200994710E-03 9.994083643E-01 1.714121699E-01 2.674337476E-02 1.811313629E-02 7.245255127E+02 8.329569246E-04 4.865048453E-03
 -8.202604294E+00 -1.213213662E-03 9.994102716E-01 1.715801954E-01 2.676323056E-02 1.812792569E-02 7.251170654E+02 8.321218775E-04 4.863530863E-03
 -8.195833206E+00 -1.209816197E-03 9.994113445E-01 1.717475057E-01 2.678299695E-02 1.814264059E-02 7.257056885E+02 8.311787969E-04 4.862006754E-03
 -8.189062119E+00 -1.182219246E-03 9.994114637E-01 1.719143689E-01 2.680268511E-02 1.815729029E-02 7.262916870E+02 8.301142370E-04 4.860475659E-03
 -8.182291985E+00 -1.158973435E-03 9.994106293E-01 1.720810533E-01 2.682230808E-02 1.817188784E-02 7.268756104E+02 8.289173129E-04 4.858938511E-03
 -8.175520897E+00 -1.150986413E-03 9.994090796E-01 1.722477973E-01 2.684188262E-02 1.818644255E-02 7.274578857E+02 8.275805158E-04 4.857394844E-03
 -8.168749809E+00 -1.149198273E-03 9.994069338E-01 1.724147797E-01 2.686141990E-02 1.820097119E-02 7.280390015E+02 8.261002367E-04 4.855846055E-03
 -8.161978722E+00 -1.163801411E-03 9.994041920E-01 1.725821197E-01 2.688093856E-02 1.821547747E-02 7.286192627E+02 8.244769415E-04 4.854291212E-03
 -8.155208588E+00 -1.190206269E-03 9.994010329E-01 1.727499068E-01 2.690045163E-02 1.822997630E-02 7.291992188E+02 8.227156941E-04 4.852731712E-03
 -8.148437500E+00 -1.201590756E-03 9.993977547E-01 1.729181558E-01 2.691996843E-02 1.824446954E-02 7.297789307E+02 8.208257495E-04 4.851168022E-03
 -8.141666412E+00 -1.199981431E-03 9.993942976E-01 1.730867922E-01 2.693950385E-02 1.825896464E-02 7.303587646E+02 8.188206120E-04 4.849599674E-03
 -8.134896278E+00 -1.200815896E-03 9.993909597E-01 1.732557416E-01 2.695905976E-02 1.827346534E-02 7.309387207E+02 8.167175110E-04 4.848026671E-03
 -8.128125191E+00 -1.194378594E-03 9.993877411E-01 1.734248400E-01 2.697863802E-02 1.828796789E-02 7.315187988E+02 8.145365864E-04 4.846449010E-03