variables="u","y"
zone,t="x=     0.97008"
   0.000000E+00   0.000000E+00
   0.340457E-02   0.500000E-06
   0.681231E-02   0.100047E-05
   0.102264E-01   0.150186E-05
   0.136500E-01   0.200465E-05
   0.170863E-01   0.250931E-05
   0.205384E-01   0.301630E-05
   0.240097E-01   0.352610E-05
   0.275033E-01   0.403918E-05
   0.310225E-01   0.455602E-05
   0.345706E-01   0.507709E-05
   0.381507E-01   0.560289E-05
   0.417663E-01   0.613390E-05
   0.454206E-01   0.667062E-05
   0.491171E-01   0.721354E-05
   0.528591E-01   0.776318E-05
   0.566499E-01   0.832003E-05
   0.604931E-01   0.888463E-05
   0.643920E-01   0.945749E-05
   0.683500E-01   0.100392E-04
   0.723707E-01   0.106302E-04
   0.764574E-01   0.112310E-04
   0.806136E-01   0.118424E-04
   0.848425E-01   0.124647E-04
   0.891475E-01   0.130987E-04
   0.935318E-01   0.137448E-04
   0.979984E-01   0.144037E-04
   0.102550E+00   0.150761E-04
   0.107190E+00   0.157624E-04
   0.111921E+00   0.164634E-04
   0.116744E+00   0.171798E-04
   0.121662E+00   0.179121E-04
   0.126676E+00   0.186610E-04
   0.131786E+00   0.194274E-04
   0.136994E+00   0.202118E-04
   0.142299E+00   0.210150E-04
   0.147700E+00   0.218378E-04
   0.153195E+00   0.226808E-04
   0.158781E+00   0.235450E-04
   0.164456E+00   0.244311E-04
   0.170214E+00   0.253399E-04
   0.176050E+00   0.262723E-04
   0.181958E+00   0.272291E-04
   0.187932E+00   0.282113E-04
   0.193962E+00   0.292197E-04
   0.200041E+00   0.302553E-04
   0.206160E+00   0.313190E-04
   0.212309E+00   0.324119E-04
   0.218480E+00   0.335349E-04
   0.224662E+00   0.346891E-04
   0.230846E+00   0.358756E-04
   0.237023E+00   0.370955E-04
   0.243184E+00   0.383499E-04
   0.249321E+00   0.396399E-04
   0.255427E+00   0.409669E-04
   0.261495E+00   0.423319E-04
   0.267518E+00   0.437363E-04
   0.273491E+00   0.451814E-04
   0.279409E+00   0.466686E-04
   0.285269E+00   0.481991E-04
   0.291068E+00   0.497746E-04
   0.296801E+00   0.513963E-04
   0.302468E+00   0.530658E-04
   0.308067E+00   0.547847E-04
   0.313597E+00   0.565545E-04
   0.319058E+00   0.583770E-04
   0.324448E+00   0.602538E-04
   0.329769E+00   0.621866E-04
   0.335021E+00   0.641773E-04
   0.340204E+00   0.662277E-04
   0.345319E+00   0.683397E-04
   0.350367E+00   0.705153E-04
   0.355350E+00   0.727565E-04
   0.360269E+00   0.750654E-04
   0.365125E+00   0.774441E-04
   0.369919E+00   0.798948E-04
   0.374654E+00   0.824199E-04
   0.379330E+00   0.850216E-04
   0.383949E+00   0.877025E-04
   0.388514E+00   0.904649E-04
   0.393024E+00   0.933115E-04
   0.397482E+00   0.962449E-04
   0.401890E+00   0.992679E-04
   0.406248E+00   0.102383E-03
   0.410559E+00   0.105594E-03
   0.414823E+00   0.108903E-03
   0.419043E+00   0.112313E-03
   0.423220E+00   0.115827E-03
   0.427354E+00   0.119450E-03
   0.431448E+00   0.123183E-03
   0.435503E+00   0.127031E-03
   0.439519E+00   0.130997E-03
   0.443498E+00   0.135085E-03
   0.447442E+00   0.139299E-03
   0.451351E+00   0.143643E-03
   0.455227E+00   0.148120E-03
   0.459070E+00   0.152734E-03
   0.462882E+00   0.157491E-03
   0.466664E+00   0.162395E-03
   0.470416E+00   0.167449E-03
   0.474140E+00   0.172659E-03
   0.477836E+00   0.178030E-03
   0.481506E+00   0.183567E-03
   0.485150E+00   0.189274E-03
   0.488769E+00   0.195157E-03
   0.492364E+00   0.201222E-03
   0.495936E+00   0.207474E-03
   0.499485E+00   0.213920E-03
   0.503012E+00   0.220564E-03
   0.506518E+00   0.227413E-03
   0.510004E+00   0.234474E-03
   0.513469E+00   0.241753E-03
   0.516916E+00   0.249257E-03
   0.520344E+00   0.256993E-03
   0.523754E+00   0.264968E-03
   0.527146E+00   0.273189E-03
   0.530522E+00   0.281665E-03
   0.533881E+00   0.290402E-03
   0.537225E+00   0.299410E-03
   0.540553E+00   0.308696E-03
   0.543866E+00   0.318270E-03
   0.547166E+00   0.328139E-03
   0.550451E+00   0.338314E-03
   0.553723E+00   0.348804E-03
   0.556983E+00   0.359618E-03
   0.560229E+00   0.370767E-03
   0.563464E+00   0.382260E-03
   0.566687E+00   0.394109E-03
   0.569899E+00   0.406325E-03
   0.573100E+00   0.418919E-03
   0.576290E+00   0.431903E-03
   0.579471E+00   0.445288E-03
   0.582641E+00   0.459088E-03
   0.585802E+00   0.473314E-03
   0.588955E+00   0.487981E-03
   0.592098E+00   0.503102E-03
   0.595233E+00   0.518692E-03
   0.598360E+00   0.534763E-03
   0.601480E+00   0.551332E-03
   0.604592E+00   0.568414E-03
   0.607696E+00   0.586025E-03
   0.610795E+00   0.604181E-03
   0.613886E+00   0.622899E-03
   0.616972E+00   0.642197E-03
   0.620051E+00   0.662092E-03
   0.623125E+00   0.682603E-03
   0.626194E+00   0.703749E-03
   0.629257E+00   0.725550E-03
   0.632316E+00   0.748025E-03
   0.635370E+00   0.771197E-03
   0.638421E+00   0.795086E-03
   0.641467E+00   0.819715E-03
   0.644509E+00   0.845106E-03
   0.647549E+00   0.871283E-03
   0.650585E+00   0.898271E-03
   0.653618E+00   0.926095E-03
   0.656649E+00   0.954780E-03
   0.659678E+00   0.984354E-03
   0.662704E+00   0.101484E-02
   0.665729E+00   0.104628E-02
   0.668753E+00   0.107868E-02
   0.671776E+00   0.111209E-02
   0.674798E+00   0.114654E-02
   0.677819E+00   0.118205E-02
   0.680840E+00   0.121866E-02
   0.683861E+00   0.125641E-02
   0.686883E+00   0.129532E-02
   0.689906E+00   0.133544E-02
   0.692929E+00   0.137680E-02
   0.695954E+00   0.141944E-02
   0.698981E+00   0.146340E-02
   0.702010E+00   0.150873E-02
   0.705042E+00   0.155546E-02
   0.708076E+00   0.160363E-02
   0.711114E+00   0.165330E-02
   0.714156E+00   0.170450E-02
   0.717201E+00   0.175729E-02
   0.720251E+00   0.181172E-02
   0.723307E+00   0.186783E-02
   0.726367E+00   0.192568E-02
   0.729434E+00   0.198532E-02
   0.732506E+00   0.204680E-02
   0.735586E+00   0.211019E-02
   0.738674E+00   0.217555E-02
   0.741769E+00   0.224293E-02
   0.744873E+00   0.231239E-02
   0.747986E+00   0.238401E-02
   0.751109E+00   0.245784E-02
   0.754243E+00   0.253396E-02
   0.757388E+00   0.261244E-02
   0.760544E+00   0.269335E-02
   0.763714E+00   0.277676E-02
   0.766897E+00   0.286276E-02
   0.770095E+00   0.295142E-02
   0.773307E+00   0.304282E-02
   0.776536E+00   0.313706E-02
   0.779783E+00   0.323421E-02
   0.783047E+00   0.333438E-02
   0.786331E+00   0.343764E-02
   0.789635E+00   0.354411E-02
   0.792961E+00   0.365387E-02
   0.796310E+00   0.376703E-02
   0.799683E+00   0.388369E-02
   0.803083E+00   0.400397E-02
   0.806509E+00   0.412797E-02
   0.809964E+00   0.425582E-02
   0.813451E+00   0.438762E-02
   0.816969E+00   0.452350E-02
   0.820522E+00   0.466359E-02
   0.824112E+00   0.480803E-02
   0.827740E+00   0.495693E-02
   0.831409E+00   0.511044E-02
   0.835122E+00   0.526871E-02
   0.838881E+00   0.543189E-02
   0.842690E+00   0.560011E-02
   0.846550E+00   0.577355E-02
   0.850466E+00   0.595235E-02
   0.854441E+00   0.613669E-02
   0.858479E+00   0.632675E-02
   0.862584E+00   0.652268E-02
   0.866760E+00   0.672469E-02
   0.871013E+00   0.693295E-02
   0.875347E+00   0.714766E-02
   0.879768E+00   0.736903E-02
   0.884283E+00   0.759724E-02
   0.888898E+00   0.783253E-02
   0.893620E+00   0.807510E-02
   0.898455E+00   0.832518E-02
   0.903410E+00   0.858301E-02
   0.908489E+00   0.884883E-02
   0.913695E+00   0.912287E-02
   0.919030E+00   0.940540E-02
   0.924491E+00   0.969669E-02
   0.930074E+00   0.999699E-02
   0.935773E+00   0.103066E-01
   0.941581E+00   0.106258E-01
   0.947489E+00   0.109549E-01
   0.953484E+00   0.112941E-01
   0.959551E+00   0.116439E-01
   0.965662E+00   0.120045E-01
   0.971776E+00   0.123763E-01
   0.977839E+00   0.127596E-01
   0.983765E+00   0.131547E-01
   0.989361E+00   0.135621E-01
   0.994122E+00   0.139822E-01
   0.997199E+00   0.144152E-01
   0.998374E+00   0.148616E-01
   0.998545E+00   0.153219E-01
   0.998537E+00   0.157964E-01
   0.998535E+00   0.162856E-01
   0.998535E+00   0.167900E-01
   0.998535E+00   0.173099E-01
   0.998535E+00   0.178460E-01
   0.998535E+00   0.183987E-01
   0.998535E+00   0.189685E-01
   0.998535E+00   0.195560E-01
   0.998534E+00   0.201616E-01
   0.998534E+00   0.207860E-01
   0.998534E+00   0.214297E-01
   0.998534E+00   0.220934E-01
   0.998534E+00   0.227776E-01
   0.998533E+00   0.234831E-01
   0.998533E+00   0.242103E-01
   0.998533E+00   0.249601E-01
   0.998533E+00   0.257331E-01
   0.998533E+00   0.265301E-01
   0.998532E+00   0.273517E-01
   0.998532E+00   0.281988E-01
   0.998532E+00   0.290721E-01
   0.998532E+00   0.299724E-01
   0.998531E+00   0.309007E-01
   0.998531E+00   0.318576E-01
   0.998531E+00   0.328443E-01
   0.998530E+00   0.338614E-01
   0.998530E+00   0.349101E-01
   0.998530E+00   0.359913E-01
   0.998529E+00   0.371059E-01
   0.998529E+00   0.382551E-01
   0.998529E+00   0.394398E-01
   0.998528E+00   0.406613E-01
   0.998528E+00   0.419205E-01
   0.998528E+00   0.432188E-01
   0.998527E+00   0.445573E-01
   0.998527E+00   0.459372E-01
   0.998527E+00   0.473599E-01
   0.998526E+00   0.488266E-01
   0.998525E+00   0.503387E-01
   0.998525E+00   0.518977E-01
   0.998525E+00   0.535049E-01
   0.998524E+00   0.551620E-01
   0.998524E+00   0.568703E-01
   0.998523E+00   0.586316E-01
   0.998523E+00   0.604474E-01
   0.998522E+00   0.623194E-01
   0.998522E+00   0.642494E-01
   0.998521E+00   0.662392E-01
   0.998520E+00   0.682906E-01
   0.998520E+00   0.704056E-01
   0.998519E+00   0.725860E-01
   0.998518E+00   0.748340E-01
   0.998518E+00   0.771516E-01
   0.998517E+00   0.795409E-01
   0.998516E+00   0.820043E-01
   0.998516E+00   0.845439E-01
   0.998515E+00   0.871622E-01
   0.998514E+00   0.898616E-01
   0.998513E+00   0.926446E-01
   0.998513E+00   0.955138E-01
   0.998512E+00   0.984718E-01
   0.998511E+00   0.101521E+00
   0.998510E+00   0.104666E+00
   0.998509E+00   0.107907E+00
   0.998508E+00   0.111249E+00
   0.998507E+00   0.114694E+00
   0.998506E+00   0.118246E+00
   0.998505E+00   0.121908E+00
   0.998504E+00   0.125684E+00
   0.998503E+00   0.129576E+00
   0.998502E+00   0.133589E+00
   0.998501E+00   0.137726E+00
   0.998500E+00   0.141992E+00
   0.998498E+00   0.146389E+00
   0.998497E+00   0.150923E+00
   0.998496E+00   0.155597E+00
   0.998495E+00   0.160415E+00
   0.998493E+00   0.165383E+00
   0.998492E+00   0.170505E+00
   0.998491E+00   0.175786E+00
   0.998489E+00   0.181230E+00
   0.998488E+00   0.186843E+00
   0.998486E+00   0.192629E+00
   0.998485E+00   0.198595E+00
   0.998483E+00   0.204745E+00
   0.998482E+00   0.211086E+00
   0.998480E+00   0.217623E+00
   0.998478E+00   0.224363E+00
   0.998477E+00   0.231311E+00
   0.998475E+00   0.238475E+00
   0.998473E+00   0.245860E+00
   0.998471E+00   0.253475E+00
   0.998469E+00   0.261325E+00
   0.998467E+00   0.269418E+00
   0.998465E+00   0.277762E+00
   0.998463E+00   0.286364E+00
   0.998461E+00   0.295232E+00
   0.998459E+00   0.304376E+00
   0.998457E+00   0.313802E+00
   0.998455E+00   0.323521E+00
   0.998453E+00   0.333540E+00
   0.998450E+00   0.343869E+00
   0.998448E+00   0.354519E+00
   0.998446E+00   0.365498E+00
   0.998443E+00   0.376818E+00
   0.998441E+00   0.388488E+00
   0.998438E+00   0.400519E+00
   0.998436E+00   0.412923E+00
   0.998433E+00   0.425711E+00
   0.998430E+00   0.438895E+00
   0.998428E+00   0.452488E+00
   0.998425E+00   0.466501E+00
   0.998422E+00   0.480948E+00
   0.998419E+00   0.495843E+00
   0.998416E+00   0.511199E+00
   0.998413E+00   0.527031E+00
   0.998410E+00   0.543353E+00
   0.998406E+00   0.560180E+00
   0.998403E+00   0.577529E+00
   0.998400E+00   0.595415E+00
   0.998396E+00   0.613855E+00
   0.998392E+00   0.632866E+00
   0.998388E+00   0.652465E+00
   0.998384E+00   0.672672E+00
   0.998380E+00   0.693504E+00
   0.998376E+00   0.714982E+00
   0.998371E+00   0.737125E+00
   0.998366E+00   0.759953E+00
   0.998361E+00   0.783489E+00
   0.998356E+00   0.807753E+00
   0.998350E+00   0.832769E+00
   0.998344E+00   0.858560E+00
   0.998337E+00   0.885149E+00
   0.998332E+00   0.912562E+00
   0.998318E+00   0.940824E+00
   0.998318E+00   0.969961E+00
   0.998330E+00   0.100000E+01
zone,t="x=     1.90334"
   0.000000E+00   0.000000E+00
   0.309983E-02   0.500000E-06
   0.620255E-02   0.100047E-05
   0.931102E-02   0.150186E-05
   0.124282E-01   0.200465E-05
   0.155569E-01   0.250931E-05
   0.187000E-01   0.301630E-05
   0.218606E-01   0.352610E-05
   0.250415E-01   0.403918E-05
   0.282456E-01   0.455602E-05
   0.314761E-01   0.507709E-05
   0.347358E-01   0.560289E-05
   0.380277E-01   0.613390E-05
   0.413550E-01   0.667062E-05
   0.447206E-01   0.721354E-05
   0.481277E-01   0.776318E-05
   0.515794E-01   0.832003E-05
   0.550787E-01   0.888463E-05
   0.586289E-01   0.945749E-05
   0.622332E-01   0.100392E-04
   0.658946E-01   0.106302E-04
   0.696164E-01   0.112310E-04
   0.734017E-01   0.118424E-04
   0.772538E-01   0.124647E-04
   0.811756E-01   0.130987E-04
   0.851704E-01   0.137448E-04
   0.892410E-01   0.144037E-04
   0.933904E-01   0.150761E-04
   0.976214E-01   0.157624E-04
   0.101937E+00   0.164634E-04
   0.106338E+00   0.171798E-04
   0.110829E+00   0.179121E-04
   0.115410E+00   0.186610E-04
   0.120082E+00   0.194274E-04
   0.124848E+00   0.202118E-04
   0.129708E+00   0.210150E-04
   0.134660E+00   0.218378E-04
   0.139706E+00   0.226808E-04
   0.144843E+00   0.235450E-04
   0.150069E+00   0.244311E-04
   0.155382E+00   0.253399E-04
   0.160777E+00   0.262723E-04
   0.166249E+00   0.272291E-04
   0.171794E+00   0.282113E-04
   0.177406E+00   0.292197E-04
   0.183076E+00   0.302553E-04
   0.188798E+00   0.313190E-04
   0.194563E+00   0.324119E-04
   0.200363E+00   0.335349E-04
   0.206189E+00   0.346891E-04
   0.212031E+00   0.358756E-04
   0.217882E+00   0.370955E-04
   0.223732E+00   0.383499E-04
   0.229573E+00   0.396399E-04
   0.235397E+00   0.409669E-04
   0.241196E+00   0.423319E-04
   0.246964E+00   0.437363E-04
   0.252695E+00   0.451814E-04
   0.258382E+00   0.466686E-04
   0.264021E+00   0.481991E-04
   0.269609E+00   0.497746E-04
   0.275140E+00   0.513963E-04
   0.280614E+00   0.530658E-04
   0.286026E+00   0.547847E-04
   0.291376E+00   0.565545E-04
   0.296663E+00   0.583770E-04
   0.301884E+00   0.602538E-04
   0.307041E+00   0.621866E-04
   0.312132E+00   0.641773E-04
   0.317158E+00   0.662277E-04
   0.322120E+00   0.683397E-04
   0.327018E+00   0.705153E-04
   0.331853E+00   0.727565E-04
   0.336625E+00   0.750654E-04
   0.341337E+00   0.774441E-04
   0.345989E+00   0.798948E-04
   0.350582E+00   0.824199E-04
   0.355118E+00   0.850216E-04
   0.359598E+00   0.877025E-04
   0.364024E+00   0.904649E-04
   0.368397E+00   0.933115E-04
   0.372719E+00   0.962449E-04
   0.376990E+00   0.992679E-04
   0.381213E+00   0.102383E-03
   0.385388E+00   0.105594E-03
   0.389518E+00   0.108903E-03
   0.393604E+00   0.112313E-03
   0.397646E+00   0.115827E-03
   0.401646E+00   0.119450E-03
   0.405606E+00   0.123183E-03
   0.409526E+00   0.127031E-03
   0.413409E+00   0.130997E-03
   0.417255E+00   0.135085E-03
   0.421065E+00   0.139299E-03
   0.424840E+00   0.143643E-03
   0.428582E+00   0.148120E-03
   0.432292E+00   0.152734E-03
   0.435970E+00   0.157491E-03
   0.439618E+00   0.162395E-03
   0.443237E+00   0.167449E-03
   0.446826E+00   0.172659E-03
   0.450389E+00   0.178030E-03
   0.453925E+00   0.183567E-03
   0.457434E+00   0.189274E-03
   0.460919E+00   0.195157E-03
   0.464380E+00   0.201222E-03
   0.467817E+00   0.207474E-03
   0.471231E+00   0.213920E-03
   0.474623E+00   0.220564E-03
   0.477994E+00   0.227413E-03
   0.481344E+00   0.234474E-03
   0.484674E+00   0.241753E-03
   0.487985E+00   0.249257E-03
   0.491277E+00   0.256993E-03
   0.494550E+00   0.264968E-03
   0.497806E+00   0.273189E-03
   0.501045E+00   0.281665E-03
   0.504267E+00   0.290402E-03
   0.507473E+00   0.299410E-03
   0.510664E+00   0.308696E-03
   0.513840E+00   0.318270E-03
   0.517000E+00   0.328139E-03
   0.520147E+00   0.338314E-03
   0.523280E+00   0.348804E-03
   0.526400E+00   0.359618E-03
   0.529507E+00   0.370767E-03
   0.532601E+00   0.382260E-03
   0.535683E+00   0.394109E-03
   0.538754E+00   0.406325E-03
   0.541813E+00   0.418919E-03
   0.544861E+00   0.431903E-03
   0.547899E+00   0.445288E-03
   0.550926E+00   0.459088E-03
   0.553943E+00   0.473314E-03
   0.556950E+00   0.487981E-03
   0.559948E+00   0.503102E-03
   0.562937E+00   0.518692E-03
   0.565918E+00   0.534763E-03
   0.568889E+00   0.551332E-03
   0.571853E+00   0.568414E-03
   0.574809E+00   0.586025E-03
   0.577757E+00   0.604181E-03
   0.580697E+00   0.622899E-03
   0.583631E+00   0.642197E-03
   0.586557E+00   0.662092E-03
   0.589477E+00   0.682603E-03
   0.592390E+00   0.703749E-03
   0.595297E+00   0.725550E-03
   0.598199E+00   0.748025E-03
   0.601094E+00   0.771197E-03
   0.603984E+00   0.795086E-03
   0.606869E+00   0.819715E-03
   0.609748E+00   0.845106E-03
   0.612623E+00   0.871283E-03
   0.615493E+00   0.898271E-03
   0.618358E+00   0.926095E-03
   0.621220E+00   0.954780E-03
   0.624077E+00   0.984354E-03
   0.626930E+00   0.101484E-02
   0.629780E+00   0.104628E-02
   0.632626E+00   0.107868E-02
   0.635469E+00   0.111209E-02
   0.638309E+00   0.114654E-02
   0.641146E+00   0.118205E-02
   0.643980E+00   0.121866E-02
   0.646812E+00   0.125641E-02
   0.649641E+00   0.129532E-02
   0.652469E+00   0.133544E-02
   0.655294E+00   0.137680E-02
   0.658118E+00   0.141944E-02
   0.660940E+00   0.146340E-02
   0.663760E+00   0.150873E-02
   0.666580E+00   0.155546E-02
   0.669398E+00   0.160363E-02
   0.672216E+00   0.165330E-02
   0.675034E+00   0.170450E-02
   0.677850E+00   0.175729E-02
   0.680667E+00   0.181172E-02
   0.683484E+00   0.186783E-02
   0.686301E+00   0.192568E-02
   0.689119E+00   0.198532E-02
   0.691937E+00   0.204680E-02
   0.694757E+00   0.211019E-02
   0.697577E+00   0.217555E-02
   0.700399E+00   0.224293E-02
   0.703223E+00   0.231239E-02
   0.706049E+00   0.238401E-02
   0.708877E+00   0.245784E-02
   0.711707E+00   0.253396E-02
   0.714541E+00   0.261244E-02
   0.717377E+00   0.269335E-02
   0.720217E+00   0.277676E-02
   0.723060E+00   0.286276E-02
   0.725907E+00   0.295142E-02
   0.728759E+00   0.304282E-02
   0.731616E+00   0.313706E-02
   0.734477E+00   0.323421E-02
   0.737344E+00   0.333438E-02
   0.740217E+00   0.343764E-02
   0.743096E+00   0.354411E-02
   0.745982E+00   0.365387E-02
   0.748874E+00   0.376703E-02
   0.751775E+00   0.388369E-02
   0.754683E+00   0.400397E-02
   0.757600E+00   0.412797E-02
   0.760526E+00   0.425582E-02
   0.763462E+00   0.438762E-02
   0.766408E+00   0.452350E-02
   0.769365E+00   0.466359E-02
   0.772333E+00   0.480803E-02
   0.775313E+00   0.495693E-02
   0.778306E+00   0.511044E-02
   0.781313E+00   0.526871E-02
   0.784335E+00   0.543189E-02
   0.787371E+00   0.560011E-02
   0.790424E+00   0.577355E-02
   0.793494E+00   0.595235E-02
   0.796581E+00   0.613669E-02
   0.799688E+00   0.632675E-02
   0.802815E+00   0.652268E-02
   0.805963E+00   0.672469E-02
   0.809133E+00   0.693295E-02
   0.812328E+00   0.714766E-02
   0.815547E+00   0.736903E-02
   0.818793E+00   0.759724E-02
   0.822067E+00   0.783253E-02
   0.825371E+00   0.807510E-02
   0.828706E+00   0.832518E-02
   0.832075E+00   0.858301E-02
   0.835479E+00   0.884883E-02
   0.838921E+00   0.912287E-02
   0.842402E+00   0.940540E-02
   0.845925E+00   0.969669E-02
   0.849492E+00   0.999699E-02
   0.853108E+00   0.103066E-01
   0.856773E+00   0.106258E-01
   0.860492E+00   0.109549E-01
   0.864268E+00   0.112941E-01
   0.868104E+00   0.116439E-01
   0.872005E+00   0.120045E-01
   0.875975E+00   0.123763E-01
   0.880019E+00   0.127596E-01
   0.884141E+00   0.131547E-01
   0.888348E+00   0.135621E-01
   0.892645E+00   0.139822E-01
   0.897039E+00   0.144152E-01
   0.901537E+00   0.148616E-01
   0.906144E+00   0.153219E-01
   0.910866E+00   0.157964E-01
   0.915709E+00   0.162856E-01
   0.920674E+00   0.167900E-01
   0.925762E+00   0.173099E-01
   0.930970E+00   0.178460E-01
   0.936294E+00   0.183987E-01
   0.941729E+00   0.189685E-01
   0.947267E+00   0.195560E-01
   0.952900E+00   0.201616E-01
   0.958618E+00   0.207860E-01
   0.964407E+00   0.214297E-01
   0.970244E+00   0.220934E-01
   0.976093E+00   0.227776E-01
   0.981909E+00   0.234831E-01
   0.987610E+00   0.242103E-01
   0.992977E+00   0.249601E-01
   0.997264E+00   0.257331E-01
   0.999503E+00   0.265301E-01
   0.100004E+01   0.273517E-01
   0.100006E+01   0.281988E-01
   0.100005E+01   0.290721E-01
   0.100005E+01   0.299724E-01
   0.100005E+01   0.309007E-01
   0.100005E+01   0.318576E-01
   0.100005E+01   0.328443E-01
   0.100005E+01   0.338614E-01
   0.100004E+01   0.349101E-01
   0.100004E+01   0.359913E-01
   0.100004E+01   0.371059E-01
   0.100004E+01   0.382551E-01
   0.100004E+01   0.394398E-01
   0.100004E+01   0.406613E-01
   0.100004E+01   0.419205E-01
   0.100003E+01   0.432188E-01
   0.100003E+01   0.445573E-01
   0.100003E+01   0.459372E-01
   0.100003E+01   0.473599E-01
   0.100003E+01   0.488266E-01
   0.100003E+01   0.503387E-01
   0.100002E+01   0.518977E-01
   0.100002E+01   0.535049E-01
   0.100002E+01   0.551620E-01
   0.100002E+01   0.568703E-01
   0.100002E+01   0.586316E-01
   0.100001E+01   0.604474E-01
   0.100001E+01   0.623194E-01
   0.100001E+01   0.642494E-01
   0.100000E+01   0.662392E-01
   0.100000E+01   0.682906E-01
   0.999999E+00   0.704056E-01
   0.999996E+00   0.725860E-01
   0.999993E+00   0.748340E-01
   0.999990E+00   0.771516E-01
   0.999987E+00   0.795409E-01
   0.999984E+00   0.820043E-01
   0.999980E+00   0.845439E-01
   0.999977E+00   0.871622E-01
   0.999973E+00   0.898616E-01
   0.999970E+00   0.926446E-01
   0.999966E+00   0.955138E-01
   0.999962E+00   0.984718E-01
   0.999959E+00   0.101521E+00
   0.999955E+00   0.104666E+00
   0.999951E+00   0.107907E+00
   0.999947E+00   0.111249E+00
   0.999943E+00   0.114694E+00
   0.999939E+00   0.118246E+00
   0.999935E+00   0.121908E+00
   0.999931E+00   0.125684E+00
   0.999927E+00   0.129576E+00
   0.999923E+00   0.133589E+00
   0.999919E+00   0.137726E+00
   0.999915E+00   0.141992E+00
   0.999911E+00   0.146389E+00
   0.999907E+00   0.150923E+00
   0.999903E+00   0.155597E+00
   0.999900E+00   0.160415E+00
   0.999896E+00   0.165383E+00
   0.999892E+00   0.170505E+00
   0.999888E+00   0.175786E+00
   0.999885E+00   0.181230E+00
   0.999881E+00   0.186843E+00
   0.999877E+00   0.192629E+00
   0.999874E+00   0.198595E+00
   0.999870E+00   0.204745E+00
   0.999867E+00   0.211086E+00
   0.999864E+00   0.217623E+00
   0.999860E+00   0.224363E+00
   0.999857E+00   0.231311E+00
   0.999854E+00   0.238475E+00
   0.999851E+00   0.245860E+00
   0.999848E+00   0.253475E+00
   0.999846E+00   0.261325E+00
   0.999843E+00   0.269418E+00
   0.999840E+00   0.277762E+00
   0.999837E+00   0.286364E+00
   0.999835E+00   0.295232E+00
   0.999832E+00   0.304376E+00
   0.999830E+00   0.313802E+00
   0.999827E+00   0.323521E+00
   0.999825E+00   0.333540E+00
   0.999823E+00   0.343869E+00
   0.999821E+00   0.354519E+00
   0.999819E+00   0.365498E+00
   0.999816E+00   0.376818E+00
   0.999814E+00   0.388488E+00
   0.999812E+00   0.400519E+00
   0.999811E+00   0.412923E+00
   0.999809E+00   0.425711E+00
   0.999807E+00   0.438895E+00
   0.999805E+00   0.452488E+00
   0.999803E+00   0.466501E+00
   0.999801E+00   0.480948E+00
   0.999799E+00   0.495843E+00
   0.999798E+00   0.511199E+00
   0.999796E+00   0.527031E+00
   0.999794E+00   0.543353E+00
   0.999792E+00   0.560180E+00
   0.999790E+00   0.577529E+00
   0.999788E+00   0.595415E+00
   0.999787E+00   0.613855E+00
   0.999784E+00   0.632866E+00
   0.999782E+00   0.652465E+00
   0.999780E+00   0.672672E+00
   0.999778E+00   0.693504E+00
   0.999776E+00   0.714982E+00
   0.999773E+00   0.737125E+00
   0.999770E+00   0.759953E+00
   0.999767E+00   0.783489E+00
   0.999764E+00   0.807753E+00
   0.999760E+00   0.832769E+00
   0.999756E+00   0.858560E+00
   0.999751E+00   0.885149E+00
   0.999746E+00   0.912562E+00
   0.999732E+00   0.940824E+00
   0.999735E+00   0.969961E+00
   0.999749E+00   0.100000E+01
