variables="log(y+)","u+"
zone,t="x=     0.97008"
  -0.103782E+01   0.916610E-01
  -0.736583E+00   0.183407E+00
  -0.560156E+00   0.275324E+00
  -0.434746E+00   0.367497E+00
  -0.337231E+00   0.460012E+00
  -0.257310E+00   0.552954E+00
  -0.189490E+00   0.646411E+00
  -0.130492E+00   0.740470E+00
  -0.781999E-01   0.835216E+00
  -0.311702E-01   0.930740E+00
   0.116268E-01   0.102713E+01
   0.509515E-01   0.112447E+01
   0.873808E-01   0.122285E+01
   0.121363E+00   0.132237E+01
   0.153254E+00   0.142312E+01
   0.183340E+00   0.152518E+01
   0.211854E+00   0.162865E+01
   0.238991E+00   0.173362E+01
   0.264912E+00   0.184018E+01
   0.289754E+00   0.194843E+01
   0.313635E+00   0.205846E+01
   0.336653E+00   0.217035E+01
   0.358898E+00   0.228420E+01
   0.380442E+00   0.240011E+01
   0.401354E+00   0.251815E+01
   0.421690E+00   0.263840E+01
   0.441503E+00   0.276095E+01
   0.460837E+00   0.288587E+01
   0.479735E+00   0.301323E+01
   0.498232E+00   0.314309E+01
   0.516360E+00   0.327549E+01
   0.534150E+00   0.341048E+01
   0.551629E+00   0.354807E+01
   0.568819E+00   0.368828E+01
   0.585744E+00   0.383111E+01
   0.602423E+00   0.397651E+01
   0.618874E+00   0.412445E+01
   0.635114E+00   0.427486E+01
   0.651158E+00   0.442763E+01
   0.667020E+00   0.458265E+01
   0.682713E+00   0.473978E+01
   0.698248E+00   0.489885E+01
   0.713637E+00   0.505966E+01
   0.728890E+00   0.522202E+01
   0.744016E+00   0.538569E+01
   0.759023E+00   0.555042E+01
   0.773919E+00   0.571598E+01
   0.788712E+00   0.588211E+01
   0.803408E+00   0.604854E+01
   0.818014E+00   0.621503E+01
   0.832536E+00   0.638134E+01
   0.846978E+00   0.654721E+01
   0.861347E+00   0.671245E+01
   0.875647E+00   0.687684E+01
   0.889882E+00   0.704019E+01
   0.904057E+00   0.720235E+01
   0.918175E+00   0.736317E+01
   0.932239E+00   0.752251E+01
   0.946254E+00   0.768028E+01
   0.960222E+00   0.783638E+01
   0.974146E+00   0.799075E+01
   0.988029E+00   0.814332E+01
   0.100187E+01   0.829406E+01
   0.101568E+01   0.844295E+01
   0.102946E+01   0.858996E+01
   0.104320E+01   0.873509E+01
   0.105691E+01   0.887834E+01
   0.107060E+01   0.901972E+01
   0.108425E+01   0.915926E+01
   0.109789E+01   0.929698E+01
   0.111150E+01   0.943290E+01
   0.112509E+01   0.956706E+01
   0.113865E+01   0.969948E+01
   0.115220E+01   0.983022E+01
   0.116573E+01   0.995930E+01
   0.117925E+01   0.100868E+02
   0.119274E+01   0.102127E+02
   0.120623E+01   0.103370E+02
   0.121969E+01   0.104599E+02
   0.123315E+01   0.105813E+02
   0.124659E+01   0.107014E+02
   0.126002E+01   0.108200E+02
   0.127344E+01   0.109374E+02
   0.128685E+01   0.110534E+02
   0.130025E+01   0.111682E+02
   0.131364E+01   0.112819E+02
   0.132703E+01   0.113943E+02
   0.134040E+01   0.115056E+02
   0.135377E+01   0.116158E+02
   0.136712E+01   0.117250E+02
   0.138048E+01   0.118331E+02
   0.139382E+01   0.119403E+02
   0.140716E+01   0.120464E+02
   0.142050E+01   0.121517E+02
   0.143383E+01   0.122560E+02
   0.144715E+01   0.123595E+02
   0.146047E+01   0.124621E+02
   0.147379E+01   0.125639E+02
   0.148710E+01   0.126650E+02
   0.150040E+01   0.127652E+02
   0.151371E+01   0.128647E+02
   0.152701E+01   0.129635E+02
   0.154031E+01   0.130616E+02
   0.155360E+01   0.131591E+02
   0.156689E+01   0.132559E+02
   0.158018E+01   0.133520E+02
   0.159347E+01   0.134476E+02
   0.160675E+01   0.135425E+02
   0.162003E+01   0.136369E+02
   0.163331E+01   0.137308E+02
   0.164659E+01   0.138241E+02
   0.165986E+01   0.139169E+02
   0.167314E+01   0.140092E+02
   0.168641E+01   0.141010E+02
   0.169968E+01   0.141923E+02
   0.171295E+01   0.142832E+02
   0.172621E+01   0.143736E+02
   0.173948E+01   0.144636E+02
   0.175275E+01   0.145532E+02
   0.176601E+01   0.146425E+02
   0.177927E+01   0.147313E+02
   0.179253E+01   0.148197E+02
   0.180580E+01   0.149078E+02
   0.181906E+01   0.149956E+02
   0.183232E+01   0.150830E+02
   0.184557E+01   0.151701E+02
   0.185883E+01   0.152569E+02
   0.187209E+01   0.153433E+02
   0.188534E+01   0.154295E+02
   0.189860E+01   0.155154E+02
   0.191186E+01   0.156010E+02
   0.192511E+01   0.156864E+02
   0.193836E+01   0.157715E+02
   0.195162E+01   0.158564E+02
   0.196487E+01   0.159410E+02
   0.197812E+01   0.160254E+02
   0.199138E+01   0.161096E+02
   0.200463E+01   0.161936E+02
   0.201788E+01   0.162774E+02
   0.203113E+01   0.163609E+02
   0.204438E+01   0.164444E+02
   0.205763E+01   0.165276E+02
   0.207088E+01   0.166107E+02
   0.208413E+01   0.166936E+02
   0.209738E+01   0.167763E+02
   0.211063E+01   0.168589E+02
   0.212388E+01   0.169414E+02
   0.213713E+01   0.170238E+02
   0.215038E+01   0.171060E+02
   0.216363E+01   0.171881E+02
   0.217688E+01   0.172701E+02
   0.219013E+01   0.173521E+02
   0.220337E+01   0.174339E+02
   0.221662E+01   0.175156E+02
   0.222987E+01   0.175973E+02
   0.224312E+01   0.176789E+02
   0.225637E+01   0.177604E+02
   0.226961E+01   0.178419E+02
   0.228286E+01   0.179234E+02
   0.229611E+01   0.180048E+02
   0.230936E+01   0.180861E+02
   0.232260E+01   0.181675E+02
   0.233585E+01   0.182488E+02
   0.234910E+01   0.183302E+02
   0.236234E+01   0.184115E+02
   0.237559E+01   0.184929E+02
   0.238884E+01   0.185743E+02
   0.240209E+01   0.186557E+02
   0.241533E+01   0.187371E+02
   0.242858E+01   0.188186E+02
   0.244183E+01   0.189002E+02
   0.245507E+01   0.189818E+02
   0.246832E+01   0.190635E+02
   0.248157E+01   0.191453E+02
   0.249481E+01   0.192271E+02
   0.250806E+01   0.193091E+02
   0.252131E+01   0.193913E+02
   0.253455E+01   0.194735E+02
   0.254780E+01   0.195559E+02
   0.256104E+01   0.196385E+02
   0.257429E+01   0.197212E+02
   0.258754E+01   0.198041E+02
   0.260078E+01   0.198872E+02
   0.261403E+01   0.199706E+02
   0.262728E+01   0.200541E+02
   0.264052E+01   0.201380E+02
   0.265377E+01   0.202220E+02
   0.266701E+01   0.203064E+02
   0.268026E+01   0.203911E+02
   0.269351E+01   0.204761E+02
   0.270675E+01   0.205614E+02
   0.272000E+01   0.206471E+02
   0.273324E+01   0.207332E+02
   0.274649E+01   0.208197E+02
   0.275974E+01   0.209066E+02
   0.277298E+01   0.209940E+02
   0.278623E+01   0.210819E+02
   0.279948E+01   0.211703E+02
   0.281272E+01   0.212593E+02
   0.282597E+01   0.213488E+02
   0.283921E+01   0.214390E+02
   0.285246E+01   0.215298E+02
   0.286571E+01   0.216213E+02
   0.287895E+01   0.217136E+02
   0.289220E+01   0.218066E+02
   0.290544E+01   0.219004E+02
   0.291869E+01   0.219952E+02
   0.293194E+01   0.220908E+02
   0.294518E+01   0.221875E+02
   0.295843E+01   0.222852E+02
   0.297167E+01   0.223839E+02
   0.298492E+01   0.224839E+02
   0.299817E+01   0.225851E+02
   0.301141E+01   0.226876E+02
   0.302466E+01   0.227916E+02
   0.303790E+01   0.228970E+02
   0.305115E+01   0.230040E+02
   0.306439E+01   0.231127E+02
   0.307764E+01   0.232233E+02
   0.309089E+01   0.233357E+02
   0.310413E+01   0.234502E+02
   0.311738E+01   0.235669E+02
   0.313062E+01   0.236859E+02
   0.314387E+01   0.238075E+02
   0.315712E+01   0.239317E+02
   0.317036E+01   0.240588E+02
   0.318361E+01   0.241890E+02
   0.319685E+01   0.243224E+02
   0.321010E+01   0.244591E+02
   0.322335E+01   0.245993E+02
   0.323659E+01   0.247429E+02
   0.324984E+01   0.248900E+02
   0.326308E+01   0.250403E+02
   0.327633E+01   0.251937E+02
   0.328958E+01   0.253501E+02
   0.330282E+01   0.255091E+02
   0.331607E+01   0.256705E+02
   0.332931E+01   0.258339E+02
   0.334256E+01   0.259984E+02
   0.335581E+01   0.261630E+02
   0.336905E+01   0.263263E+02
   0.338230E+01   0.264858E+02
   0.339554E+01   0.266365E+02
   0.340879E+01   0.267646E+02
   0.342203E+01   0.268475E+02
   0.343528E+01   0.268791E+02
   0.344853E+01   0.268837E+02
   0.346177E+01   0.268835E+02
   0.347502E+01   0.268835E+02
   0.348826E+01   0.268835E+02
   0.350151E+01   0.268835E+02
   0.351476E+01   0.268835E+02
   0.352800E+01   0.268834E+02
   0.354125E+01   0.268834E+02
   0.355449E+01   0.268834E+02
   0.356774E+01   0.268834E+02
   0.358099E+01   0.268834E+02
   0.359423E+01   0.268834E+02
   0.360748E+01   0.268834E+02
   0.362072E+01   0.268834E+02
   0.363397E+01   0.268834E+02
   0.364722E+01   0.268834E+02
   0.366046E+01   0.268834E+02
   0.367371E+01   0.268834E+02
   0.368695E+01   0.268834E+02
   0.370020E+01   0.268834E+02
   0.371344E+01   0.268834E+02
   0.372669E+01   0.268834E+02
   0.373994E+01   0.268834E+02
   0.375318E+01   0.268834E+02
   0.376643E+01   0.268833E+02
   0.377967E+01   0.268833E+02
   0.379292E+01   0.268833E+02
   0.380617E+01   0.268833E+02
   0.381941E+01   0.268833E+02
   0.383266E+01   0.268833E+02
   0.384590E+01   0.268833E+02
   0.385915E+01   0.268833E+02
   0.387240E+01   0.268833E+02
   0.388564E+01   0.268833E+02
   0.389889E+01   0.268833E+02
   0.391213E+01   0.268832E+02
   0.392538E+01   0.268832E+02
   0.393862E+01   0.268832E+02
   0.395187E+01   0.268832E+02
   0.396512E+01   0.268832E+02
   0.397836E+01   0.268832E+02
   0.399161E+01   0.268832E+02
   0.400485E+01   0.268832E+02
   0.401810E+01   0.268831E+02
   0.403135E+01   0.268831E+02
   0.404459E+01   0.268831E+02
   0.405784E+01   0.268831E+02
   0.407108E+01   0.268831E+02
   0.408433E+01   0.268831E+02
   0.409758E+01   0.268831E+02
   0.411082E+01   0.268830E+02
   0.412407E+01   0.268830E+02
   0.413731E+01   0.268830E+02
   0.415056E+01   0.268830E+02
   0.416381E+01   0.268830E+02
   0.417705E+01   0.268829E+02
   0.419030E+01   0.268829E+02
   0.420354E+01   0.268829E+02
   0.421679E+01   0.268829E+02
   0.423003E+01   0.268829E+02
   0.424328E+01   0.268828E+02
   0.425653E+01   0.268828E+02
   0.426977E+01   0.268828E+02
   0.428302E+01   0.268828E+02
   0.429626E+01   0.268828E+02
   0.430951E+01   0.268827E+02
   0.432276E+01   0.268827E+02
   0.433600E+01   0.268827E+02
   0.434925E+01   0.268826E+02
   0.436249E+01   0.268826E+02
   0.437574E+01   0.268826E+02
   0.438899E+01   0.268826E+02
   0.440223E+01   0.268825E+02
   0.441548E+01   0.268825E+02
   0.442872E+01   0.268825E+02
   0.444197E+01   0.268824E+02
   0.445521E+01   0.268824E+02
   0.446846E+01   0.268824E+02
   0.448171E+01   0.268823E+02
   0.449495E+01   0.268823E+02
   0.450820E+01   0.268823E+02
   0.452144E+01   0.268822E+02
   0.453469E+01   0.268822E+02
   0.454794E+01   0.268821E+02
   0.456118E+01   0.268821E+02
   0.457443E+01   0.268821E+02
   0.458767E+01   0.268820E+02
   0.460092E+01   0.268820E+02
   0.461417E+01   0.268819E+02
   0.462741E+01   0.268819E+02
   0.464066E+01   0.268818E+02
   0.465390E+01   0.268818E+02
   0.466715E+01   0.268817E+02
   0.468040E+01   0.268817E+02
   0.469364E+01   0.268816E+02
   0.470689E+01   0.268816E+02
   0.472013E+01   0.268815E+02
   0.473338E+01   0.268815E+02
   0.474662E+01   0.268814E+02
   0.475987E+01   0.268814E+02
   0.477312E+01   0.268813E+02
   0.478636E+01   0.268812E+02
   0.479961E+01   0.268812E+02
   0.481285E+01   0.268811E+02
   0.482610E+01   0.268810E+02
   0.483935E+01   0.268810E+02
   0.485259E+01   0.268809E+02
   0.486584E+01   0.268808E+02
   0.487908E+01   0.268808E+02
   0.489233E+01   0.268807E+02
   0.490558E+01   0.268806E+02
   0.491882E+01   0.268806E+02
   0.493207E+01   0.268805E+02
   0.494531E+01   0.268804E+02
   0.495856E+01   0.268803E+02
   0.497180E+01   0.268802E+02
   0.498505E+01   0.268802E+02
   0.499830E+01   0.268801E+02
   0.501154E+01   0.268800E+02
   0.502479E+01   0.268799E+02
   0.503803E+01   0.268798E+02
   0.505128E+01   0.268797E+02
   0.506453E+01   0.268796E+02
   0.507777E+01   0.268795E+02
   0.509102E+01   0.268794E+02
   0.510426E+01   0.268793E+02
   0.511751E+01   0.268792E+02
   0.513076E+01   0.268790E+02
   0.514400E+01   0.268789E+02
   0.515725E+01   0.268788E+02
   0.517049E+01   0.268786E+02
   0.518374E+01   0.268785E+02
   0.519699E+01   0.268783E+02
   0.521023E+01   0.268781E+02
   0.522348E+01   0.268780E+02
   0.523672E+01   0.268776E+02
   0.524997E+01   0.268776E+02
   0.526321E+01   0.268779E+02
zone,t="x=     1.90334"
  -0.105820E+01   0.874585E-01
  -0.756966E+00   0.174998E+00
  -0.580538E+00   0.262701E+00
  -0.455129E+00   0.350647E+00
  -0.357613E+00   0.438920E+00
  -0.277693E+00   0.527601E+00
  -0.209873E+00   0.616773E+00
  -0.150875E+00   0.706518E+00
  -0.985827E-01   0.796920E+00
  -0.515530E-01   0.888064E+00
  -0.875590E-02   0.980032E+00
   0.305687E-01   0.107291E+01
   0.669980E-01   0.116679E+01
   0.100980E+00   0.126174E+01
   0.132871E+00   0.135787E+01
   0.162957E+00   0.145526E+01
   0.191471E+00   0.155399E+01
   0.218608E+00   0.165415E+01
   0.244529E+00   0.175584E+01
   0.269371E+00   0.185915E+01
   0.293252E+00   0.196415E+01
   0.316271E+00   0.207095E+01
   0.338515E+00   0.217963E+01
   0.360059E+00   0.229028E+01
   0.380971E+00   0.240299E+01
   0.401307E+00   0.251784E+01
   0.421120E+00   0.263491E+01
   0.440455E+00   0.275428E+01
   0.459352E+00   0.287603E+01
   0.477849E+00   0.300022E+01
   0.495977E+00   0.312691E+01
   0.513768E+00   0.325616E+01
   0.531246E+00   0.338800E+01
   0.548437E+00   0.352246E+01
   0.565361E+00   0.365956E+01
   0.582040E+00   0.379930E+01
   0.598491E+00   0.394165E+01
   0.614731E+00   0.408659E+01
   0.630775E+00   0.423404E+01
   0.646637E+00   0.438392E+01
   0.662330E+00   0.453614E+01
   0.677865E+00   0.469055E+01
   0.693255E+00   0.484700E+01
   0.708507E+00   0.500531E+01
   0.723633E+00   0.516530E+01
   0.738640E+00   0.532673E+01
   0.753536E+00   0.548939E+01
   0.768329E+00   0.565303E+01
   0.783025E+00   0.581740E+01
   0.797631E+00   0.598224E+01
   0.812153E+00   0.614731E+01
   0.826596E+00   0.631237E+01
   0.840964E+00   0.647716E+01
   0.855264E+00   0.664147E+01
   0.869500E+00   0.680509E+01
   0.883674E+00   0.696783E+01
   0.897792E+00   0.712951E+01
   0.911856E+00   0.728997E+01
   0.925871E+00   0.744908E+01
   0.939839E+00   0.760672E+01
   0.953763E+00   0.776279E+01
   0.967646E+00   0.791722E+01
   0.981491E+00   0.806993E+01
   0.995299E+00   0.822087E+01
   0.100907E+01   0.837002E+01
   0.102282E+01   0.851734E+01
   0.103653E+01   0.866283E+01
   0.105021E+01   0.880647E+01
   0.106387E+01   0.894829E+01
   0.107750E+01   0.908828E+01
   0.109112E+01   0.922646E+01
   0.110470E+01   0.936287E+01
   0.111827E+01   0.949752E+01
   0.113182E+01   0.963045E+01
   0.114535E+01   0.976170E+01
   0.115886E+01   0.989129E+01
   0.117236E+01   0.100193E+02
   0.118584E+01   0.101457E+02
   0.119931E+01   0.102706E+02
   0.121277E+01   0.103939E+02
   0.122621E+01   0.105159E+02
   0.123964E+01   0.106364E+02
   0.125306E+01   0.107555E+02
   0.126647E+01   0.108733E+02
   0.127987E+01   0.109898E+02
   0.129326E+01   0.111051E+02
   0.130664E+01   0.112191E+02
   0.132002E+01   0.113320E+02
   0.133338E+01   0.114437E+02
   0.134674E+01   0.115543E+02
   0.136009E+01   0.116639E+02
   0.137344E+01   0.117724E+02
   0.138678E+01   0.118799E+02
   0.140011E+01   0.119864E+02
   0.141344E+01   0.120920E+02
   0.142677E+01   0.121967E+02
   0.144009E+01   0.123004E+02
   0.145340E+01   0.124034E+02
   0.146671E+01   0.125054E+02
   0.148002E+01   0.126067E+02
   0.149333E+01   0.127072E+02
   0.150663E+01   0.128070E+02
   0.151992E+01   0.129060E+02
   0.153322E+01   0.130043E+02
   0.154651E+01   0.131020E+02
   0.155980E+01   0.131989E+02
   0.157308E+01   0.132953E+02
   0.158637E+01   0.133910E+02
   0.159965E+01   0.134861E+02
   0.161293E+01   0.135806E+02
   0.162620E+01   0.136746E+02
   0.163948E+01   0.137680E+02
   0.165275E+01   0.138608E+02
   0.166602E+01   0.139532E+02
   0.167930E+01   0.140451E+02
   0.169256E+01   0.141364E+02
   0.170583E+01   0.142274E+02
   0.171910E+01   0.143178E+02
   0.173236E+01   0.144078E+02
   0.174563E+01   0.144974E+02
   0.175889E+01   0.145866E+02
   0.177215E+01   0.146754E+02
   0.178541E+01   0.147638E+02
   0.179867E+01   0.148518E+02
   0.181193E+01   0.149395E+02
   0.182519E+01   0.150268E+02
   0.183845E+01   0.151137E+02
   0.185171E+01   0.152004E+02
   0.186496E+01   0.152867E+02
   0.187822E+01   0.153727E+02
   0.189147E+01   0.154584E+02
   0.190473E+01   0.155438E+02
   0.191798E+01   0.156289E+02
   0.193124E+01   0.157138E+02
   0.194449E+01   0.157983E+02
   0.195774E+01   0.158827E+02
   0.197099E+01   0.159668E+02
   0.198425E+01   0.160506E+02
   0.199750E+01   0.161342E+02
   0.201075E+01   0.162176E+02
   0.202400E+01   0.163008E+02
   0.203725E+01   0.163837E+02
   0.205050E+01   0.164665E+02
   0.206375E+01   0.165491E+02
   0.207700E+01   0.166315E+02
   0.209025E+01   0.167137E+02
   0.210350E+01   0.167957E+02
   0.211675E+01   0.168775E+02
   0.213000E+01   0.169592E+02
   0.214325E+01   0.170408E+02
   0.215649E+01   0.171222E+02
   0.216974E+01   0.172034E+02
   0.218299E+01   0.172845E+02
   0.219624E+01   0.173655E+02
   0.220949E+01   0.174463E+02
   0.222274E+01   0.175271E+02
   0.223598E+01   0.176077E+02
   0.224923E+01   0.176882E+02
   0.226248E+01   0.177686E+02
   0.227573E+01   0.178489E+02
   0.228897E+01   0.179291E+02
   0.230222E+01   0.180092E+02
   0.231547E+01   0.180893E+02
   0.232871E+01   0.181692E+02
   0.234196E+01   0.182491E+02
   0.235521E+01   0.183289E+02
   0.236846E+01   0.184087E+02
   0.238170E+01   0.184884E+02
   0.239495E+01   0.185681E+02
   0.240820E+01   0.186477E+02
   0.242144E+01   0.187273E+02
   0.243469E+01   0.188068E+02
   0.244794E+01   0.188864E+02
   0.246118E+01   0.189659E+02
   0.247443E+01   0.190454E+02
   0.248768E+01   0.191248E+02
   0.250092E+01   0.192043E+02
   0.251417E+01   0.192838E+02
   0.252742E+01   0.193633E+02
   0.254066E+01   0.194428E+02
   0.255391E+01   0.195223E+02
   0.256715E+01   0.196018E+02
   0.258040E+01   0.196814E+02
   0.259365E+01   0.197610E+02
   0.260689E+01   0.198407E+02
   0.262014E+01   0.199204E+02
   0.263339E+01   0.200002E+02
   0.264663E+01   0.200801E+02
   0.265988E+01   0.201600E+02
   0.267312E+01   0.202400E+02
   0.268637E+01   0.203201E+02
   0.269962E+01   0.204004E+02
   0.271286E+01   0.204807E+02
   0.272611E+01   0.205612E+02
   0.273935E+01   0.206418E+02
   0.275260E+01   0.207225E+02
   0.276585E+01   0.208034E+02
   0.277909E+01   0.208844E+02
   0.279234E+01   0.209657E+02
   0.280558E+01   0.210471E+02
   0.281883E+01   0.211287E+02
   0.283208E+01   0.212105E+02
   0.284532E+01   0.212926E+02
   0.285857E+01   0.213749E+02
   0.287181E+01   0.214574E+02
   0.288506E+01   0.215403E+02
   0.289831E+01   0.216234E+02
   0.291155E+01   0.217068E+02
   0.292480E+01   0.217905E+02
   0.293804E+01   0.218746E+02
   0.295129E+01   0.219591E+02
   0.296454E+01   0.220439E+02
   0.297778E+01   0.221292E+02
   0.299103E+01   0.222148E+02
   0.300427E+01   0.223010E+02
   0.301752E+01   0.223876E+02
   0.303077E+01   0.224747E+02
   0.304401E+01   0.225623E+02
   0.305726E+01   0.226506E+02
   0.307050E+01   0.227394E+02
   0.308375E+01   0.228288E+02
   0.309700E+01   0.229190E+02
   0.311024E+01   0.230098E+02
   0.312349E+01   0.231014E+02
   0.313673E+01   0.231937E+02
   0.314998E+01   0.232870E+02
   0.316323E+01   0.233811E+02
   0.317647E+01   0.234761E+02
   0.318972E+01   0.235721E+02
   0.320296E+01   0.236692E+02
   0.321621E+01   0.237675E+02
   0.322946E+01   0.238669E+02
   0.324270E+01   0.239675E+02
   0.325595E+01   0.240695E+02
   0.326919E+01   0.241729E+02
   0.328244E+01   0.242779E+02
   0.329568E+01   0.243844E+02
   0.330893E+01   0.244926E+02
   0.332218E+01   0.246027E+02
   0.333542E+01   0.247147E+02
   0.334867E+01   0.248288E+02
   0.336191E+01   0.249451E+02
   0.337516E+01   0.250638E+02
   0.338841E+01   0.251850E+02
   0.340165E+01   0.253090E+02
   0.341490E+01   0.254359E+02
   0.342814E+01   0.255659E+02
   0.344139E+01   0.256991E+02
   0.345464E+01   0.258358E+02
   0.346788E+01   0.259758E+02
   0.348113E+01   0.261194E+02
   0.349437E+01   0.262663E+02
   0.350762E+01   0.264165E+02
   0.352087E+01   0.265699E+02
   0.353411E+01   0.267261E+02
   0.354736E+01   0.268850E+02
   0.356060E+01   0.270464E+02
   0.357385E+01   0.272097E+02
   0.358709E+01   0.273744E+02
   0.360034E+01   0.275394E+02
   0.361359E+01   0.277035E+02
   0.362683E+01   0.278644E+02
   0.364008E+01   0.280158E+02
   0.365332E+01   0.281367E+02
   0.366657E+01   0.281999E+02
   0.367982E+01   0.282150E+02
   0.369306E+01   0.282155E+02
   0.370631E+01   0.282154E+02
   0.371955E+01   0.282153E+02
   0.373280E+01   0.282153E+02
   0.374605E+01   0.282153E+02
   0.375929E+01   0.282153E+02
   0.377254E+01   0.282152E+02
   0.378578E+01   0.282152E+02
   0.379903E+01   0.282152E+02
   0.381227E+01   0.282151E+02
   0.382552E+01   0.282151E+02
   0.383877E+01   0.282150E+02
   0.385201E+01   0.282150E+02
   0.386526E+01   0.282150E+02
   0.387850E+01   0.282149E+02
   0.389175E+01   0.282149E+02
   0.390500E+01   0.282148E+02
   0.391824E+01   0.282148E+02
   0.393149E+01   0.282147E+02
   0.394473E+01   0.282147E+02
   0.395798E+01   0.282146E+02
   0.397123E+01   0.282145E+02
   0.398447E+01   0.282145E+02
   0.399772E+01   0.282144E+02
   0.401096E+01   0.282144E+02
   0.402421E+01   0.282143E+02
   0.403746E+01   0.282142E+02
   0.405070E+01   0.282141E+02
   0.406395E+01   0.282141E+02
   0.407719E+01   0.282140E+02
   0.409044E+01   0.282139E+02
   0.410368E+01   0.282138E+02
   0.411693E+01   0.282137E+02
   0.413018E+01   0.282137E+02
   0.414342E+01   0.282136E+02
   0.415667E+01   0.282135E+02
   0.416991E+01   0.282134E+02
   0.418316E+01   0.282133E+02
   0.419641E+01   0.282132E+02
   0.420965E+01   0.282131E+02
   0.422290E+01   0.282130E+02
   0.423614E+01   0.282129E+02
   0.424939E+01   0.282128E+02
   0.426264E+01   0.282127E+02
   0.427588E+01   0.282125E+02
   0.428913E+01   0.282124E+02
   0.430237E+01   0.282123E+02
   0.431562E+01   0.282122E+02
   0.432887E+01   0.282121E+02
   0.434211E+01   0.282120E+02
   0.435536E+01   0.282119E+02
   0.436860E+01   0.282118E+02
   0.438185E+01   0.282116E+02
   0.439509E+01   0.282115E+02
   0.440834E+01   0.282114E+02
   0.442159E+01   0.282113E+02
   0.443483E+01   0.282112E+02
   0.444808E+01   0.282111E+02
   0.446132E+01   0.282110E+02
   0.447457E+01   0.282109E+02
   0.448782E+01   0.282108E+02
   0.450106E+01   0.282107E+02
   0.451431E+01   0.282106E+02
   0.452755E+01   0.282105E+02
   0.454080E+01   0.282104E+02
   0.455405E+01   0.282103E+02
   0.456729E+01   0.282102E+02
   0.458054E+01   0.282101E+02
   0.459378E+01   0.282100E+02
   0.460703E+01   0.282099E+02
   0.462027E+01   0.282098E+02
   0.463352E+01   0.282097E+02
   0.464677E+01   0.282096E+02
   0.466001E+01   0.282096E+02
   0.467326E+01   0.282095E+02
   0.468650E+01   0.282094E+02
   0.469975E+01   0.282093E+02
   0.471300E+01   0.282093E+02
   0.472624E+01   0.282092E+02
   0.473949E+01   0.282091E+02
   0.475273E+01   0.282091E+02
   0.476598E+01   0.282090E+02
   0.477923E+01   0.282089E+02
   0.479247E+01   0.282089E+02
   0.480572E+01   0.282088E+02
   0.481896E+01   0.282088E+02
   0.483221E+01   0.282087E+02
   0.484545E+01   0.282086E+02
   0.485870E+01   0.282086E+02
   0.487195E+01   0.282085E+02
   0.488519E+01   0.282085E+02
   0.489844E+01   0.282084E+02
   0.491168E+01   0.282084E+02
   0.492493E+01   0.282083E+02
   0.493818E+01   0.282083E+02
   0.495142E+01   0.282082E+02
   0.496467E+01   0.282082E+02
   0.497791E+01   0.282081E+02
   0.499116E+01   0.282081E+02
   0.500441E+01   0.282080E+02
   0.501765E+01   0.282080E+02
   0.503090E+01   0.282079E+02
   0.504414E+01   0.282078E+02
   0.505739E+01   0.282078E+02
   0.507064E+01   0.282077E+02
   0.508388E+01   0.282077E+02
   0.509713E+01   0.282076E+02
   0.511037E+01   0.282075E+02
   0.512362E+01   0.282074E+02
   0.513686E+01   0.282074E+02
   0.515011E+01   0.282073E+02
   0.516336E+01   0.282072E+02
   0.517660E+01   0.282070E+02
   0.518985E+01   0.282069E+02
   0.520309E+01   0.282068E+02
   0.521634E+01   0.282064E+02
   0.522959E+01   0.282064E+02
   0.524283E+01   0.282068E+02
zone,t="Spalding theory"
   0.557030E-04   0.100000E+01
   0.176288E+00   0.150000E+01
   0.301516E+00   0.200000E+01
   0.398932E+00   0.250000E+01
   0.478916E+00   0.300000E+01
   0.547053E+00   0.350000E+01
   0.606731E+00   0.400000E+01
   0.660189E+00   0.450000E+01
   0.709013E+00   0.500000E+01
   0.754398E+00   0.550000E+01
   0.797286E+00   0.600000E+01
   0.838461E+00   0.650000E+01
   0.878598E+00   0.700000E+01
   0.918298E+00   0.750000E+01
   0.958108E+00   0.800000E+01
   0.998534E+00   0.850000E+01
   0.104004E+01   0.900000E+01
   0.108307E+01   0.950000E+01
   0.112799E+01   0.100000E+02
   0.117515E+01   0.105000E+02
   0.122482E+01   0.110000E+02
   0.127722E+01   0.115000E+02
   0.133248E+01   0.120000E+02
   0.139069E+01   0.125000E+02
   0.145185E+01   0.130000E+02
   0.151587E+01   0.135000E+02
   0.158266E+01   0.140000E+02
   0.165203E+01   0.145000E+02
   0.172380E+01   0.150000E+02
   0.179775E+01   0.155000E+02
   0.187365E+01   0.160000E+02
   0.195127E+01   0.165000E+02
   0.203040E+01   0.170000E+02
   0.211084E+01   0.175000E+02
   0.219240E+01   0.180000E+02
   0.227491E+01   0.185000E+02
   0.235821E+01   0.190000E+02
   0.244219E+01   0.195000E+02
   0.252673E+01   0.200000E+02
   0.261173E+01   0.205000E+02
   0.269710E+01   0.210000E+02
   0.278279E+01   0.215000E+02
   0.286872E+01   0.220000E+02
   0.295486E+01   0.225000E+02
   0.304117E+01   0.230000E+02
   0.312761E+01   0.235000E+02
   0.321415E+01   0.240000E+02
   0.330077E+01   0.245000E+02
   0.338746E+01   0.250000E+02
   0.347420E+01   0.255000E+02
