# Nondimensional eddy viscosity at x=0.97, BSL model
VARIABLES = "X","Y","mu_t"
ZONE T="CFL3D"
 9.700000286E-01 2.499999994E-07 2.214671805E-12
 9.700000286E-01 7.502325730E-07 3.329852227E-10
 9.700000286E-01 1.251163098E-06 6.180032042E-09
 9.700000286E-01 1.753257607E-06 4.413159260E-08
 9.700000286E-01 2.256983180E-06 1.903039646E-07
 9.700000286E-01 2.762808435E-06 6.058771760E-07
 9.700000286E-01 3.271203923E-06 1.579061859E-06
 9.700000286E-01 3.782642807E-06 3.574196398E-06
 9.700000286E-01 4.297600753E-06 7.289247151E-06
 9.700000286E-01 4.816556611E-06 1.372332372E-05
 9.700000286E-01 5.339993095E-06 2.425612729E-05
 9.700000286E-01 5.868397693E-06 4.074154276E-05
 9.700000286E-01 6.402261988E-06 6.561786722E-05
 9.700000286E-01 6.942082109E-06 1.020374912E-04
 9.700000286E-01 7.488360552E-06 1.540191734E-04
 9.700000286E-01 8.041605724E-06 2.266261872E-04
 9.700000286E-01 8.602331945E-06 3.261741367E-04
 9.700000286E-01 9.171060810E-06 4.604721908E-04
 9.700000286E-01 9.748321645E-06 6.391014322E-04
 9.700000286E-01 1.033465105E-05 8.737348835E-04
 9.700000286E-01 1.093059564E-05 1.178501640E-03
 9.700000286E-01 1.153670928E-05 1.570399269E-03
 9.700000286E-01 1.215355496E-05 2.069755690E-03
 9.700000286E-01 1.278170748E-05 2.700742800E-03
 9.700000286E-01 1.342175074E-05 3.491938114E-03
 9.700000286E-01 1.407428044E-05 4.476933740E-03
 9.700000286E-01 1.473990324E-05 5.694984924E-03
 9.700000286E-01 1.541924030E-05 7.191685960E-03
 9.700000286E-01 1.611291918E-05 9.019659832E-03
 9.700000286E-01 1.682159018E-05 1.123924740E-02
 9.700000286E-01 1.754590994E-05 1.391915325E-02
 9.700000286E-01 1.828655331E-05 1.713704318E-02
 9.700000286E-01 1.904420787E-05 2.098003030E-02
 9.700000286E-01 1.981958121E-05 2.554504573E-02
 9.700000286E-01 2.061339183E-05 3.093900904E-02
 9.700000286E-01 2.142637823E-05 3.727880865E-02
 9.700000286E-01 2.225929893E-05 4.469102249E-02
 9.700000286E-01 2.311292883E-05 5.331137031E-02
 9.700000286E-01 2.398805918E-05 6.328389049E-02
 9.700000286E-01 2.488550672E-05 7.475982606E-02
 9.700000286E-01 2.580610453E-05 8.789626509E-02
 9.700000286E-01 2.675071119E-05 1.028545648E-01
 9.700000286E-01 2.772020343E-05 1.197986081E-01
 9.700000286E-01 2.871548350E-05 1.388930231E-01
 9.700000286E-01 2.973747905E-05 1.603013724E-01
 9.700000286E-01 3.078714144E-05 1.841844171E-01
 9.700000286E-01 3.186544200E-05 2.106986493E-01
 9.700000286E-01 3.297338844E-05 2.399949729E-01
 9.700000286E-01 3.411201033E-05 2.722177505E-01
 9.700000286E-01 3.528236630E-05 3.075041473E-01
 9.700000286E-01 3.648554775E-05 3.459838629E-01
 9.700000286E-01 3.772267155E-05 3.877791464E-01
 9.700000286E-01 3.899488729E-05 4.330050945E-01
 9.700000286E-01 4.030338459E-05 4.817702174E-01
 9.700000286E-01 4.164937127E-05 5.341773629E-01
 9.700000286E-01 4.303410969E-05 5.903244019E-01
 9.700000286E-01 4.445888044E-05 6.503053308E-01
 9.700000286E-01 4.592501136E-05 7.142112851E-01
 9.700000286E-01 4.743386671E-05 7.821315527E-01
 9.700000286E-01 4.898685074E-05 8.541547060E-01
 9.700000286E-01 5.058540773E-05 9.303691983E-01
 9.700000286E-01 5.223102562E-05 1.010864496E+00
 9.700000286E-01 5.392523599E-05 1.095731497E+00
 9.700000286E-01 5.566961045E-05 1.185063958E+00
 9.700000286E-01 5.746577517E-05 1.278957963E+00
 9.700000286E-01 5.931540363E-05 1.377513409E+00
 9.700000286E-01 6.122021296E-05 1.480833888E+00
 9.700000286E-01 6.318197120E-05 1.589027047E+00
 9.700000286E-01 6.520251191E-05 1.702205181E+00
 9.700000286E-01 6.728371227E-05 1.820485711E+00
 9.700000286E-01 6.942750770E-05 1.943990350E+00
 9.700000286E-01 7.163589180E-05 2.072846651E+00
 9.700000286E-01 7.391091640E-05 2.207186937E+00
 9.700000286E-01 7.625470607E-05 2.347149849E+00
 9.700000286E-01 7.866942906E-05 2.492878914E+00
 9.700000286E-01 8.115734818E-05 2.644523382E+00
 9.700000286E-01 8.372076263E-05 2.802238941E+00
 9.700000286E-01 8.636206621E-05 2.966187000E+00
 9.700000286E-01 8.908371092E-05 3.136534929E+00
 9.700000286E-01 9.188823606E-05 3.313456535E+00
 9.700000286E-01 9.477823914E-05 3.497132301E+00
 9.700000286E-01 9.775641956E-05 3.687747955E+00
 9.700000286E-01 1.008255422E-04 3.885496855E+00
 9.700000286E-01 1.039884592E-04 4.090579033E+00
 9.700000286E-01 1.072481246E-04 4.303200722E+00
 9.700000286E-01 1.106075651E-04 4.523575306E+00
 9.700000286E-01 1.140699023E-04 4.751924038E+00
 9.700000286E-01 1.176383594E-04 4.988474846E+00
 9.700000286E-01 1.213162541E-04 5.233462811E+00
 9.700000286E-01 1.251070062E-04 5.487130642E+00
 9.700000286E-01 1.290141663E-04 5.749730110E+00
 9.700000286E-01 1.330413361E-04 6.021518707E+00
 9.700000286E-01 1.371922699E-04 6.302763939E+00
 9.700000286E-01 1.414708386E-04 6.593740940E+00
 9.700000286E-01 1.458810293E-04 6.894732475E+00
 9.700000286E-01 1.504269312E-04 7.206031799E+00
 9.700000286E-01 1.551127643E-04 7.527939320E+00
 9.700000286E-01 1.599429088E-04 7.860766411E+00
 9.700000286E-01 1.649218466E-04 8.204832077E+00
 9.700000286E-01 1.700542198E-04 8.560464859E+00
 9.700000286E-01 1.753448014E-04 8.928004265E+00
 9.700000286E-01 1.807984954E-04 9.307800293E+00
 9.700000286E-01 1.864203950E-04 9.700211525E+00
 9.700000286E-01 1.922157098E-04 1.010560703E+01
 9.700000286E-01 1.981898677E-04 1.052436638E+01
 9.700000286E-01 2.043483837E-04 1.095688343E+01
 9.700000286E-01 2.106970205E-04 1.140355968E+01
 9.700000286E-01 2.172416571E-04 1.186480904E+01
 9.700000286E-01 2.239884052E-04 1.234105587E+01
 9.700000286E-01 2.309435367E-04 1.283274078E+01
 9.700000286E-01 2.381135128E-04 1.334031105E+01
 9.700000286E-01 2.455050126E-04 1.386423016E+01
 9.700000286E-01 2.531248902E-04 1.440497398E+01
 9.700000286E-01 2.609802759E-04 1.496302986E+01
 9.700000286E-01 2.690784459E-04 1.553889847E+01
 9.700000286E-01 2.774269378E-04 1.613309479E+01
 9.700000286E-01 2.860335226E-04 1.674614906E+01
 9.700000286E-01 2.949062036E-04 1.737860107E+01
 9.700000286E-01 3.040532465E-04 1.803101158E+01
 9.700000286E-01 3.134831495E-04 1.870394516E+01
 9.700000286E-01 3.232046729E-04 1.939799309E+01
 9.700000286E-01 3.332268971E-04 2.011375427E+01
 9.700000286E-01 3.435591352E-04 2.085184479E+01
 9.700000286E-01 3.542109625E-04 2.161289597E+01
 9.700000286E-01 3.651923325E-04 2.239755249E+01
 9.700000286E-01 3.765134607E-04 2.320647621E+01
 9.700000286E-01 3.881848534E-04 2.404034805E+01
 9.700000286E-01 4.002173664E-04 2.489986038E+01
 9.700000286E-01 4.126222047E-04 2.578571892E+01
 9.700000286E-01 4.254109226E-04 2.669865417E+01
 9.700000286E-01 4.385953944E-04 2.763940620E+01
 9.700000286E-01 4.521879018E-04 2.860873222E+01
 9.700000286E-01 4.662010761E-04 2.960740852E+01
 9.700000286E-01 4.806479556E-04 3.063622093E+01
 9.700000286E-01 4.955420154E-04 3.169597816E+01
 9.700000286E-01 5.108970799E-04 3.278750229E+01
 9.700000286E-01 5.267274100E-04 3.391162872E+01
 9.700000286E-01 5.430477904E-04 3.506921005E+01
 9.700000286E-01 5.598733551E-04 3.626111221E+01
 9.700000286E-01 5.772197619E-04 3.748822403E+01
 9.700000286E-01 5.951031926E-04 3.875143433E+01
 9.700000286E-01 6.135402364E-04 4.005165863E+01
 9.700000286E-01 6.325480645E-04 4.138982010E+01
 9.700000286E-01 6.521443138E-04 4.276684952E+01
 9.700000286E-01 6.723473198E-04 4.418369675E+01
 9.700000286E-01 6.931758253E-04 4.564131927E+01
 9.700000286E-01 7.146491553E-04 4.714068604E+01
 9.700000286E-01 7.367873332E-04 4.868276978E+01
 9.700000286E-01 7.596109645E-04 5.026855087E+01
 9.700000286E-01 7.831412950E-04 5.189902496E+01
 9.700000286E-01 8.074001526E-04 5.357517624E+01
 9.700000286E-01 8.324101800E-04 5.529800415E+01
 9.700000286E-01 8.581946022E-04 5.706850433E+01
 9.700000286E-01 8.847774006E-04 5.888766479E+01
 9.700000286E-01 9.121833136E-04 6.075647354E+01
 9.700000286E-01 9.404378361E-04 6.267591476E+01
 9.700000286E-01 9.695672779E-04 6.464695740E+01
 9.700000286E-01 9.995986475E-04 6.667056274E+01
 9.700000286E-01 1.030560001E-03 6.874765778E+01
 9.700000286E-01 1.062480151E-03 7.087918091E+01
 9.700000286E-01 1.095388667E-03 7.306601715E+01
 9.700000286E-01 1.129316282E-03 7.530902863E+01
 9.700000286E-01 1.164294430E-03 7.760905457E+01
 9.700000286E-01 1.200355822E-03 7.996688080E+01
 9.700000286E-01 1.237533870E-03 8.238327026E+01
 9.700000286E-01 1.275863266E-03 8.485890198E+01
 9.700000286E-01 1.315379515E-03 8.739440155E+01
 9.700000286E-01 1.356119523E-03 8.999037170E+01
 9.700000286E-01 1.398121123E-03 9.264727783E+01
 9.700000286E-01 1.441423432E-03 9.536556244E+01
 9.700000286E-01 1.486066729E-03 9.814553070E+01
 9.700000286E-01 1.532092574E-03 1.009874115E+02
 9.700000286E-01 1.579543576E-03 1.038913116E+02
 9.700000286E-01 1.628464204E-03 1.068572235E+02
 9.700000286E-01 1.678899745E-03 1.098849945E+02
 9.700000286E-01 1.730897231E-03 1.129743423E+02
 9.700000286E-01 1.784504857E-03 1.161247940E+02
 9.700000286E-01 1.839772798E-03 1.193357239E+02
 9.700000286E-01 1.896752161E-03 1.226063004E+02
 9.700000286E-01 1.955496147E-03 1.259354858E+02
 9.700000286E-01 2.016059356E-03 1.293220215E+02
 9.700000286E-01 2.078498015E-03 1.327643890E+02
 9.700000286E-01 2.142870566E-03 1.362608032E+02
 9.700000286E-01 2.209236380E-03 1.398092041E+02
 9.700000286E-01 2.277657622E-03 1.434072113E+02
 9.700000286E-01 2.348197857E-03 1.470521088E+02
 9.700000286E-01 2.420922508E-03 1.507408295E+02
 9.700000286E-01 2.495899564E-03 1.544699097E+02
 9.700000286E-01 2.573198406E-03 1.582354431E+02
 9.700000286E-01 2.652890980E-03 1.620331421E+02
 9.700000286E-01 2.735051792E-03 1.658582001E+02
 9.700000286E-01 2.819756977E-03 1.697052765E+02
 9.700000286E-01 2.907085465E-03 1.735685577E+02
 9.700000286E-01 2.997118514E-03 1.774416199E+02
 9.700000286E-01 3.089939710E-03 1.813174133E+02
 9.700000286E-01 3.185635433E-03 1.851882324E+02
 9.700000286E-01 3.284294857E-03 1.890457153E+02
 9.700000286E-01 3.386009717E-03 1.928807983E+02
 9.700000286E-01 3.490874544E-03 1.966835480E+02
 9.700000286E-01 3.598987125E-03 2.004433289E+02
 9.700000286E-01 3.710447578E-03 2.041485748E+02
 9.700000286E-01 3.825360211E-03 2.077868805E+02
 9.700000286E-01 3.943831660E-03 2.113448944E+02
 9.700000286E-01 4.065971822E-03 2.148082733E+02
 9.700000286E-01 4.191894550E-03 2.181616516E+02
 9.700000286E-01 4.321717191E-03 2.213886566E+02
 9.700000286E-01 4.455560353E-03 2.244717407E+02
 9.700000286E-01 4.593548831E-03 2.273922729E+02
 9.700000286E-01 4.735810217E-03 2.301304169E+02
 9.700000286E-01 4.882477690E-03 2.326651611E+02
 9.700000286E-01 5.033687688E-03 2.349742279E+02
 9.700000286E-01 5.189579912E-03 2.370340576E+02
 9.700000286E-01 5.350300577E-03 2.388198090E+02
 9.700000286E-01 5.515998229E-03 2.403052979E+02
 9.700000286E-01 5.686827935E-03 2.414629822E+02
 9.700000286E-01 5.862948019E-03 2.422639008E+02
 9.700000286E-01 6.044522393E-03 2.426777191E+02
 9.700000286E-01 6.231720094E-03 2.426726074E+02
 9.700000286E-01 6.424714811E-03 2.422152405E+02
 9.700000286E-01 6.623687223E-03 2.412708435E+02
 9.700000286E-01 6.828821264E-03 2.398032227E+02
 9.700000286E-01 7.040308323E-03 2.377750854E+02
 9.700000286E-01 7.258344907E-03 2.351488190E+02
 9.700000286E-01 7.483134046E-03 2.318881683E+02
 9.700000286E-01 7.714885287E-03 2.279612122E+02
 9.700000286E-01 7.953813300E-03 2.233451996E+02
 9.700000286E-01 8.200140670E-03 2.180325470E+02
 9.700000286E-01 8.454097435E-03 2.120362701E+02
 9.700000286E-01 8.715918288E-03 2.053905640E+02
 9.700000286E-01 8.985848166E-03 1.981434479E+02
 9.700000286E-01 9.264137596E-03 1.903417664E+02
 9.700000286E-01 9.551045485E-03 1.820145874E+02
 9.700000286E-01 9.846839122E-03 1.731625061E+02
 9.700000286E-01 1.015179232E-02 1.637557831E+02
 9.700000286E-01 1.046619099E-02 1.537397003E+02
 9.700000286E-01 1.079032570E-02 1.430425110E+02
 9.700000286E-01 1.112449914E-02 1.315838776E+02
 9.700000286E-01 1.146902237E-02 1.192816162E+02
 9.700000286E-01 1.182421483E-02 1.062208176E+02
 9.700000286E-01 1.219040714E-02 9.246117401E+01
 9.700000286E-01 1.256794017E-02 7.779658508E+01
 9.700000286E-01 1.295716595E-02 6.212474823E+01
 9.700000286E-01 1.335844584E-02 4.572708511E+01
 9.700000286E-01 1.377215330E-02 2.951332283E+01
 9.700000286E-01 1.419867296E-02 1.569689465E+01
 9.700000286E-01 1.463840157E-02 6.496463299E+00
 9.700000286E-01 1.509174798E-02 1.641914248E+00
 9.700000286E-01 1.555913500E-02 1.927056760E-01
 9.700000286E-01 1.604099758E-02 2.139312401E-02
 9.700000286E-01 1.653778180E-02 8.156945929E-03
 9.700000286E-01 1.704995334E-02 7.223783061E-03
 9.700000286E-01 1.757798530E-02 7.160954177E-03
 9.700000286E-01 1.812236942E-02 7.156895939E-03
 9.700000286E-01 1.868361421E-02 7.156641223E-03
 9.700000286E-01 1.926223934E-02 7.156622596E-03
 9.700000286E-01 1.985878497E-02 7.156618405E-03
 9.700000286E-01 2.047380619E-02 7.156614680E-03
 9.700000286E-01 2.110787295E-02 7.156611886E-03
 9.700000286E-01 2.176157758E-02 7.156609092E-03
 9.700000286E-01 2.243552729E-02 7.156606298E-03
 9.700000286E-01 2.313034981E-02 7.156603970E-03
 9.700000286E-01 2.384668961E-02 7.156601641E-03
 9.700000286E-01 2.458521351E-02 7.156599313E-03
 9.700000286E-01 2.534661070E-02 7.156597450E-03
 9.700000286E-01 2.613158710E-02 7.156595588E-03
 9.700000286E-01 2.694087476E-02 7.156594191E-03
 9.700000286E-01 2.777522430E-02 7.156592328E-03
 9.700000286E-01 2.863541432E-02 7.156590931E-03
 9.700000286E-01 2.952224575E-02 7.156590000E-03
 9.700000286E-01 3.043654002E-02 7.156588603E-03
 9.700000286E-01 3.137915209E-02 7.156587671E-03
 9.700000286E-01 3.235095367E-02 7.156586740E-03
 9.700000286E-01 3.335285187E-02 7.156585809E-03
 9.700000286E-01 3.438577801E-02 7.156585343E-03
 9.700000286E-01 3.545069695E-02 7.156584878E-03
 9.700000286E-01 3.654859215E-02 7.156583946E-03
 9.700000286E-01 3.768049181E-02 7.156583946E-03
 9.700000286E-01 3.884744644E-02 7.156583481E-03
 9.700000286E-01 4.005054012E-02 7.156583015E-03
 9.700000286E-01 4.129089043E-02 7.156583015E-03
 9.700000286E-01 4.256965965E-02 7.156583015E-03
 9.700000286E-01 4.388802871E-02 7.156583015E-03
 9.700000286E-01 4.524722695E-02 7.156583015E-03
 9.700000286E-01 4.664851725E-02 7.156583481E-03
 9.700000286E-01 4.809320718E-02 7.156583481E-03
 9.700000286E-01 4.958264157E-02 7.156583946E-03
 9.700000286E-01 5.111819878E-02 7.156584412E-03
 9.700000286E-01 5.270131305E-02 7.156584878E-03
 9.700000286E-01 5.433345586E-02 7.156585343E-03
 9.700000286E-01 5.601614714E-02 7.156586275E-03
 9.700000286E-01 5.775095150E-02 7.156586740E-03
 9.700000286E-01 5.953947827E-02 7.156587671E-03
 9.700000286E-01 6.138340011E-02 7.156588603E-03
 9.700000286E-01 6.328442693E-02 7.156589068E-03
 9.700000286E-01 6.524432451E-02 7.156590465E-03
 9.700000286E-01 6.726492196E-02 7.156591397E-03
 9.700000286E-01 6.934808940E-02 7.156592328E-03
 9.700000286E-01 7.149577886E-02 7.156593725E-03
 9.700000286E-01 7.370998710E-02 7.156595122E-03
 9.700000286E-01 7.599275559E-02 7.156596053E-03
 9.700000286E-01 7.834623009E-02 7.156597450E-03
 9.700000286E-01 8.077258617E-02 7.156598847E-03
 9.700000286E-01 8.327408880E-02 7.156600710E-03
 9.700000286E-01 8.585306257E-02 7.156602107E-03
 9.700000286E-01 8.851190656E-02 7.156603970E-03
 9.700000286E-01 9.125309438E-02 7.156605367E-03
 9.700000286E-01 9.407917410E-02 7.156607229E-03
 9.700000286E-01 9.699277580E-02 7.156609092E-03
 9.700000286E-01 9.999661148E-02 7.156610955E-03
 9.700000286E-01 1.030934751E-01 7.156613283E-03
 9.700000286E-01 1.062862501E-01 7.156615146E-03
 9.700000286E-01 1.095779017E-01 7.156617474E-03
 9.700000286E-01 1.129714921E-01 7.156619802E-03
 9.700000286E-01 1.164701879E-01 7.156622130E-03
 9.700000286E-01 1.200772300E-01 7.156624459E-03
 9.700000286E-01 1.237959862E-01 7.156626787E-03
 9.700000286E-01 1.276299059E-01 7.156629115E-03
 9.700000286E-01 1.315825731E-01 7.156631909E-03
 9.700000286E-01 1.356576383E-01 7.156634703E-03
 9.700000286E-01 1.398589164E-01 7.156637497E-03
 9.700000286E-01 1.441902965E-01 7.156640291E-03
 9.700000286E-01 1.486558318E-01 7.156643551E-03
 9.700000286E-01 1.532596499E-01 7.156646345E-03
 9.700000286E-01 1.580060571E-01 7.156649604E-03
 9.700000286E-01 1.628994495E-01 7.156652864E-03
 9.700000286E-01 1.679444015E-01 7.156656124E-03
 9.700000286E-01 1.731455922E-01 7.156659849E-03
 9.700000286E-01 1.785078496E-01 7.156663109E-03
 9.700000286E-01 1.840361804E-01 7.156666834E-03
 9.700000286E-01 1.897357255E-01 7.156670559E-03
 9.700000286E-01 1.956117898E-01 7.156674284E-03
 9.700000286E-01 2.016698271E-01 7.156678010E-03
 9.700000286E-01 2.079154700E-01 7.156682201E-03
 9.700000286E-01 2.143545449E-01 7.156686392E-03
 9.700000286E-01 2.209930420E-01 7.156690117E-03
 9.700000286E-01 2.278371304E-01 7.156694774E-03
 9.700000286E-01 2.348931730E-01 7.156698965E-03
 9.700000286E-01 2.421677411E-01 7.156703621E-03
 9.700000286E-01 2.496675998E-01 7.156707812E-03
 9.700000286E-01 2.573997378E-01 7.156712469E-03
 9.700000286E-01 2.653713226E-01 7.156717591E-03
 9.700000286E-01 2.735897899E-01 7.156722248E-03
 9.700000286E-01 2.820627689E-01 7.156727370E-03
 9.700000286E-01 2.907981873E-01 7.156732492E-03
 9.700000286E-01 2.998040915E-01 7.156737614E-03
 9.700000286E-01 3.090889454E-01 7.156743202E-03
 9.700000286E-01 3.186613321E-01 7.156748325E-03
 9.700000286E-01 3.285301626E-01 7.156753913E-03
 9.700000286E-01 3.387046456E-01 7.156759501E-03
 9.700000286E-01 3.491942286E-01 7.156765554E-03
 9.700000286E-01 3.600086570E-01 7.156771142E-03
 9.700000286E-01 3.711580336E-01 7.156777196E-03
 9.700000286E-01 3.826526701E-01 7.156783249E-03
 9.700000286E-01 3.945032954E-01 7.156789768E-03
 9.700000286E-01 4.067209363E-01 7.156795822E-03
 9.700000286E-01 4.193169773E-01 7.156802341E-03
 9.700000286E-01 4.323030710E-01 7.156808395E-03
 9.700000286E-01 4.456913769E-01 7.156814914E-03
 9.700000286E-01 4.594942927E-01 7.156821899E-03
 9.700000286E-01 4.737246931E-01 7.156828418E-03
 9.700000286E-01 4.883958101E-01 7.156835403E-03
 9.700000286E-01 5.035212636E-01 7.156842388E-03
 9.700000286E-01 5.191151500E-01 7.156849373E-03
 9.700000286E-01 5.351920128E-01 7.156856358E-03
 9.700000286E-01 5.517667532E-01 7.156863343E-03
 9.700000286E-01 5.688547492E-01 7.156870794E-03
 9.700000286E-01 5.864720345E-01 7.156877778E-03
 9.700000286E-01 6.046348810E-01 7.156885229E-03
 9.700000286E-01 6.233602166E-01 7.156892680E-03
 9.700000286E-01 6.426655054E-01 7.156899665E-03
 9.700000286E-01 6.625686884E-01 7.156907115E-03
 9.700000286E-01 6.830881834E-01 7.156914100E-03
 9.700000286E-01 7.042432427E-01 7.156921551E-03
 9.700000286E-01 7.260534167E-01 7.156928536E-03
 9.700000286E-01 7.485390902E-01 7.156935986E-03
 9.700000286E-01 7.717211246E-01 7.156942971E-03
 9.700000286E-01 7.956210375E-01 7.156949956E-03
 9.700000286E-01 8.202611804E-01 7.156956475E-03
 9.700000286E-01 8.456644416E-01 7.156962994E-03
 9.700000286E-01 8.718544245E-01 7.156969514E-03
 9.700000286E-01 8.988554478E-01 7.156975567E-03
 9.700000286E-01 9.266927242E-01 7.156980690E-03
 9.700000286E-01 9.553921223E-01 7.156983484E-03
 9.700000286E-01 9.849802852E-01 7.156979758E-03
ZONE T="FUN3D"
 9.700000286E-01 2.499999994E-07 2.887172619E-11
 9.700000286E-01 7.502325730E-07 1.083139023E-09
 9.700000286E-01 1.251163098E-06 1.146071327E-08
 9.700000286E-01 1.753257607E-06 6.409729281E-08
 9.700000286E-01 2.256983180E-06 2.448089162E-07
 9.700000286E-01 2.762808435E-06 7.281890362E-07
 9.700000286E-01 3.271203923E-06 1.820085572E-06
 9.700000286E-01 3.782642807E-06 4.007301413E-06
 9.700000286E-01 4.297600753E-06 8.015788808E-06
 9.700000286E-01 4.816556611E-06 1.487895588E-05
 9.700000286E-01 5.339993095E-06 2.601801134E-05
 9.700000286E-01 5.868397693E-06 4.333661127E-05
 9.700000286E-01 6.402261988E-06 6.933217810E-05
 9.700000286E-01 6.942082109E-06 1.072268424E-04
 9.700000286E-01 7.488360552E-06 1.611211192E-04
 9.700000286E-01 8.041605724E-06 2.361735096E-04
 9.700000286E-01 8.602331945E-06 3.388098557E-04
 9.700000286E-01 9.171060810E-06 4.769662046E-04
 9.700000286E-01 9.748321645E-06 6.603688817E-04
 9.700000286E-01 1.033465105E-05 9.008555207E-04
 9.700000286E-01 1.093059564E-05 1.212741830E-03
 9.700000286E-01 1.153670928E-05 1.613233588E-03
 9.700000286E-01 1.215355496E-05 2.122889273E-03
 9.700000286E-01 1.278170748E-05 2.766136080E-03
 9.700000286E-01 1.342175074E-05 3.571827430E-03
 9.700000286E-01 1.407428044E-05 4.573853221E-03
 9.700000286E-01 1.473990324E-05 5.811781622E-03
 9.700000286E-01 1.541924030E-05 7.331538945E-03
 9.700000286E-01 1.611291918E-05 9.186074138E-03
 9.700000286E-01 1.682159018E-05 1.143607218E-02
 9.700000286E-01 1.754590994E-05 1.415054966E-02
 9.700000286E-01 1.828655331E-05 1.740747318E-02
 9.700000286E-01 1.904420787E-05 2.129421197E-02
 9.700000286E-01 1.981958121E-05 2.590791695E-02
 9.700000286E-01 2.061339183E-05 3.135563433E-02
 9.700000286E-01 2.142637823E-05 3.775430471E-02
 9.700000286E-01 2.225929893E-05 4.523048550E-02
 9.700000286E-01 2.311292883E-05 5.391976237E-02
 9.700000286E-01 2.398805918E-05 6.396585703E-02
 9.700000286E-01 2.488550672E-05 7.551968098E-02
 9.700000286E-01 2.580610453E-05 8.873782307E-02
 9.700000286E-01 2.675071119E-05 1.037810668E-01
 9.700000286E-01 2.772020343E-05 1.208125725E-01
 9.700000286E-01 2.871548350E-05 1.399962604E-01
 9.700000286E-01 2.973747905E-05 1.614949554E-01
 9.700000286E-01 3.078714144E-05 1.854686141E-01
 9.700000286E-01 3.186544200E-05 2.120728493E-01
 9.700000286E-01 3.297338844E-05 2.414579391E-01
 9.700000286E-01 3.411201033E-05 2.737675905E-01
 9.700000286E-01 3.528236630E-05 3.091382980E-01
 9.700000286E-01 3.648554775E-05 3.476993442E-01
 9.700000286E-01 3.772267155E-05 3.895725906E-01
 9.700000286E-01 3.899488729E-05 4.348727465E-01
 9.700000286E-01 4.030338459E-05 4.837082624E-01
 9.700000286E-01 4.164937127E-05 5.361815095E-01
 9.700000286E-01 4.303410969E-05 5.923907161E-01
 9.700000286E-01 4.445888044E-05 6.524296403E-01
 9.700000286E-01 4.592501136E-05 7.163895369E-01
 9.700000286E-01 4.743386671E-05 7.843599319E-01
 9.700000286E-01 4.898685074E-05 8.564292789E-01
 9.700000286E-01 5.058540773E-05 9.326863885E-01
 9.700000286E-01 5.223102562E-05 1.013220787E+00
 9.700000286E-01 5.392523599E-05 1.098123789E+00
 9.700000286E-01 5.566961045E-05 1.187488794E+00
 9.700000286E-01 5.746577517E-05 1.281412482E+00
 9.700000286E-01 5.931540363E-05 1.379994869E+00
 9.700000286E-01 6.122021296E-05 1.483339548E+00
 9.700000286E-01 6.318197120E-05 1.591554165E+00
 9.700000286E-01 6.520251191E-05 1.704751611E+00
 9.700000286E-01 6.728371227E-05 1.823049068E+00
 9.700000286E-01 6.942750770E-05 1.946568608E+00
 9.700000286E-01 7.163589180E-05 2.075437546E+00
 9.700000286E-01 7.391091640E-05 2.209788561E+00
 9.700000286E-01 7.625470607E-05 2.349760532E+00
 9.700000286E-01 7.866942906E-05 2.495496273E+00
 9.700000286E-01 8.115734818E-05 2.647146225E+00
 9.700000286E-01 8.372076263E-05 2.804865599E+00
 9.700000286E-01 8.636206621E-05 2.968815565E+00
 9.700000286E-01 8.908371092E-05 3.139163733E+00
 9.700000286E-01 9.188823606E-05 3.316084623E+00
 9.700000286E-01 9.477823914E-05 3.499757290E+00
 9.700000286E-01 9.775641956E-05 3.690368414E+00
 9.700000286E-01 1.008255422E-04 3.888111591E+00
 9.700000286E-01 1.039884592E-04 4.093185902E+00
 9.700000286E-01 1.072481246E-04 4.305799007E+00
 9.700000286E-01 1.106075651E-04 4.526163578E+00
 9.700000286E-01 1.140699023E-04 4.754500389E+00
 9.700000286E-01 1.176383594E-04 4.991037846E+00
 9.700000286E-01 1.213162541E-04 5.236011028E+00
 9.700000286E-01 1.251070062E-04 5.489662647E+00
 9.700000286E-01 1.290141663E-04 5.752244949E+00
 9.700000286E-01 1.330413361E-04 6.024014950E+00
 9.700000286E-01 1.371922699E-04 6.305239201E+00
 9.700000286E-01 1.414708386E-04 6.596193790E+00
 9.700000286E-01 1.458810293E-04 6.897162914E+00
 9.700000286E-01 1.504269312E-04 7.208437443E+00
 9.700000286E-01 1.551127643E-04 7.530317783E+00
 9.700000286E-01 1.599429088E-04 7.863116741E+00
 9.700000286E-01 1.649218466E-04 8.207153320E+00
 9.700000286E-01 1.700542198E-04 8.562755585E+00
 9.700000286E-01 1.753448014E-04 8.930264473E+00
 9.700000286E-01 1.807984954E-04 9.310026169E+00
 9.700000286E-01 1.864203950E-04 9.702402115E+00
 9.700000286E-01 1.922157098E-04 1.010776043E+01
 9.700000286E-01 1.981898677E-04 1.052648354E+01
 9.700000286E-01 2.043483837E-04 1.095896053E+01
 9.700000286E-01 2.106970205E-04 1.140559578E+01
 9.700000286E-01 2.172416571E-04 1.186680222E+01
 9.700000286E-01 2.239884052E-04 1.234300613E+01
 9.700000286E-01 2.309435367E-04 1.283464622E+01
 9.700000286E-01 2.381135128E-04 1.334217072E+01
 9.700000286E-01 2.455050126E-04 1.386604404E+01
 9.700000286E-01 2.531248902E-04 1.440673828E+01
 9.700000286E-01 2.609802759E-04 1.496474361E+01
 9.700000286E-01 2.690784459E-04 1.554056168E+01
 9.700000286E-01 2.774269378E-04 1.613470650E+01
 9.700000286E-01 2.860335226E-04 1.674770737E+01
 9.700000286E-01 2.949062036E-04 1.738010597E+01
 9.700000286E-01 3.040532465E-04 1.803246117E+01
 9.700000286E-01 3.134831495E-04 1.870534325E+01
 9.700000286E-01 3.232046729E-04 1.939933395E+01
 9.700000286E-01 3.332268971E-04 2.011503792E+01
 9.700000286E-01 3.435591352E-04 2.085307503E+01
 9.700000286E-01 3.542109625E-04 2.161406898E+01
 9.700000286E-01 3.651923325E-04 2.239867020E+01
 9.700000286E-01 3.765134607E-04 2.320754051E+01
 9.700000286E-01 3.881848534E-04 2.404135895E+01
 9.700000286E-01 4.002173664E-04 2.490081787E+01
 9.700000286E-01 4.126222047E-04 2.578662491E+01
 9.700000286E-01 4.254109226E-04 2.669951057E+01
 9.700000286E-01 4.385953944E-04 2.764021301E+01
 9.700000286E-01 4.521879018E-04 2.860949516E+01
 9.700000286E-01 4.662010761E-04 2.960812759E+01
 9.700000286E-01 4.806479556E-04 3.063689995E+01
 9.700000286E-01 4.955420154E-04 3.169662476E+01
 9.700000286E-01 5.108970799E-04 3.278811646E+01
 9.700000286E-01 5.267274100E-04 3.391221619E+01
 9.700000286E-01 5.430477904E-04 3.506977844E+01
 9.700000286E-01 5.598733551E-04 3.626166916E+01
 9.700000286E-01 5.772197619E-04 3.748876953E+01
 9.700000286E-01 5.951031926E-04 3.875198364E+01
 9.700000286E-01 6.135402364E-04 4.005221939E+01
 9.700000286E-01 6.325480645E-04 4.139039993E+01
 9.700000286E-01 6.521443138E-04 4.276745605E+01
 9.700000286E-01 6.723473198E-04 4.418434906E+01
 9.700000286E-01 6.931758253E-04 4.564202881E+01
 9.700000286E-01 7.146491553E-04 4.714146423E+01
 9.700000286E-01 7.367873332E-04 4.868363190E+01
 9.700000286E-01 7.596109645E-04 5.026952362E+01
 9.700000286E-01 7.831412950E-04 5.190011978E+01
 9.700000286E-01 8.074001526E-04 5.357641983E+01
 9.700000286E-01 8.324101800E-04 5.529941940E+01
 9.700000286E-01 8.581946022E-04 5.707011414E+01
 9.700000286E-01 8.847774006E-04 5.888949585E+01
 9.700000286E-01 9.121833136E-04 6.075855637E+01
 9.700000286E-01 9.404378361E-04 6.267828369E+01
 9.700000286E-01 9.695672779E-04 6.464964294E+01
 9.700000286E-01 9.995986475E-04 6.667359924E+01
 9.700000286E-01 1.030560001E-03 6.875110626E+01
 9.700000286E-01 1.062480151E-03 7.088307953E+01
 9.700000286E-01 1.095388667E-03 7.307040405E+01
 9.700000286E-01 1.129316282E-03 7.531397247E+01
 9.700000286E-01 1.164294430E-03 7.761459351E+01
 9.700000286E-01 1.200355822E-03 7.997309113E+01
 9.700000286E-01 1.237533870E-03 8.239020538E+01
 9.700000286E-01 1.275863266E-03 8.486663818E+01
 9.700000286E-01 1.315379515E-03 8.740302277E+01
 9.700000286E-01 1.356119523E-03 8.999993896E+01
 9.700000286E-01 1.398121123E-03 9.265790558E+01
 9.700000286E-01 1.441423432E-03 9.537732697E+01
 9.700000286E-01 1.486066729E-03 9.815854645E+01
 9.700000286E-01 1.532092574E-03 1.010017776E+02
 9.700000286E-01 1.579543576E-03 1.039071426E+02
 9.700000286E-01 1.628464204E-03 1.068746567E+02
 9.700000286E-01 1.678899745E-03 1.099041595E+02
 9.700000286E-01 1.730897231E-03 1.129953842E+02
 9.700000286E-01 1.784504857E-03 1.161478500E+02
 9.700000286E-01 1.839772798E-03 1.193609695E+02
 9.700000286E-01 1.896752161E-03 1.226339035E+02
 9.700000286E-01 1.955496147E-03 1.259656448E+02
 9.700000286E-01 2.016059356E-03 1.293549042E+02
 9.700000286E-01 2.078498015E-03 1.328002167E+02
 9.700000286E-01 2.142870566E-03 1.362998047E+02
 9.700000286E-01 2.209236380E-03 1.398516235E+02
 9.700000286E-01 2.277657622E-03 1.434532928E+02
 9.700000286E-01 2.348197857E-03 1.471021118E+02
 9.700000286E-01 2.420922508E-03 1.507950134E+02
 9.700000286E-01 2.495899564E-03 1.545285950E+02
 9.700000286E-01 2.573198406E-03 1.582989502E+02
 9.700000286E-01 2.652890980E-03 1.621017761E+02
 9.700000286E-01 2.735051792E-03 1.659323120E+02
 9.700000286E-01 2.819756977E-03 1.697852478E+02
 9.700000286E-01 2.907085465E-03 1.736547852E+02
 9.700000286E-01 2.997118514E-03 1.775345001E+02
 9.700000286E-01 3.089939710E-03 1.814173737E+02
 9.700000286E-01 3.185635433E-03 1.852957306E+02
 9.700000286E-01 3.284294857E-03 1.891612549E+02
 9.700000286E-01 3.386009717E-03 1.930048218E+02
 9.700000286E-01 3.490874544E-03 1.968166199E+02
 9.700000286E-01 3.598987125E-03 2.005859833E+02
 9.700000286E-01 3.710447578E-03 2.043014221E+02
 9.700000286E-01 3.825360211E-03 2.079505310E+02
 9.700000286E-01 3.943831660E-03 2.115199890E+02
 9.700000286E-01 4.065971822E-03 2.149954987E+02
 9.700000286E-01 4.191894550E-03 2.183617554E+02
 9.700000286E-01 4.321717191E-03 2.216023865E+02
 9.700000286E-01 4.455560353E-03 2.246999664E+02
 9.700000286E-01 4.593548831E-03 2.276358948E+02
 9.700000286E-01 4.735810217E-03 2.303904114E+02
 9.700000286E-01 4.882477690E-03 2.329425964E+02
 9.700000286E-01 5.033687688E-03 2.352702942E+02
 9.700000286E-01 5.189579912E-03 2.373500824E+02
 9.700000286E-01 5.350300577E-03 2.391573029E+02
 9.700000286E-01 5.515998229E-03 2.406659546E+02
 9.700000286E-01 5.686827935E-03 2.418488007E+02
 9.700000286E-01 5.862948019E-03 2.426772003E+02
 9.700000286E-01 6.044522393E-03 2.431212616E+02
 9.700000286E-01 6.231720094E-03 2.431496735E+02
 9.700000286E-01 6.424714811E-03 2.427297974E+02
 9.700000286E-01 6.623687223E-03 2.418276520E+02
 9.700000286E-01 6.828821264E-03 2.404078827E+02
 9.700000286E-01 7.040308323E-03 2.384339905E+02
 9.700000286E-01 7.258344907E-03 2.358685303E+02
 9.700000286E-01 7.483134046E-03 2.326738892E+02
 9.700000286E-01 7.714885287E-03 2.288135376E+02
 9.700000286E-01 7.953813300E-03 2.242543030E+02