# Nondimensional omega and k at x=0.97, BSL model
VARIABLES = "X","Y","omega","k"
ZONE T="CFL3D"
 9.700000286E-01 2.499999994E-07 1.775755167E+00 3.961007303E-12
 9.700000286E-01 7.502325730E-07 3.267717063E-01 1.095929181E-10
 9.700000286E-01 1.251163098E-06 1.147069782E-01 7.139923097E-10
 9.700000286E-01 1.753257607E-06 5.545425415E-02 2.464888293E-09
 9.700000286E-01 2.256983180E-06 3.205533698E-02 6.144134090E-09
 9.700000286E-01 2.762808435E-06 2.069836669E-02 1.263085903E-08
 9.700000286E-01 3.271203923E-06 1.439420506E-02 2.289278811E-08
 9.700000286E-01 3.782642807E-06 1.055227034E-02 3.798707127E-08
 9.700000286E-01 4.297600753E-06 8.045268245E-03 5.906554179E-08
 9.700000286E-01 4.816556611E-06 6.322017871E-03 8.738269486E-08
 9.700000286E-01 5.339993095E-06 5.088147707E-03 1.243056857E-07
 9.700000286E-01 5.868397693E-06 4.175193142E-03 1.713259650E-07
 9.700000286E-01 6.402261988E-06 3.481241874E-03 2.300724731E-07
 9.700000286E-01 6.942082109E-06 2.941768849E-03 3.023262423E-07
 9.700000286E-01 7.488360552E-06 2.514337655E-03 3.900362344E-07
 9.700000286E-01 8.041605724E-06 2.170125255E-03 4.953367352E-07
 9.700000286E-01 8.602331945E-06 1.889006700E-03 6.205654017E-07
 9.700000286E-01 9.171060810E-06 1.656588400E-03 7.682832575E-07
 9.700000286E-01 9.748321645E-06 1.462358283E-03 9.412948998E-07
 9.700000286E-01 1.033465105E-05 1.298494986E-03 1.142669703E-06
 9.700000286E-01 1.093059564E-05 1.159082283E-03 1.375763418E-06
 9.700000286E-01 1.153670928E-05 1.039578812E-03 1.644240001E-06
 9.700000286E-01 1.215355496E-05 9.364515427E-04 1.952092589E-06
 9.700000286E-01 1.278170748E-05 8.469182067E-04 2.303662995E-06
 9.700000286E-01 1.342175074E-05 7.687639445E-04 2.703658765E-06
 9.700000286E-01 1.407428044E-05 7.002073689E-04 3.157167384E-06
 9.700000286E-01 1.473990324E-05 6.398022524E-04 3.669664466E-06
 9.700000286E-01 1.541924030E-05 5.863643019E-04 4.247016477E-06
 9.700000286E-01 1.611291918E-05 5.389159778E-04 4.895470283E-06
 9.700000286E-01 1.682159018E-05 4.966440029E-04 5.621638593E-06
 9.700000286E-01 1.754590994E-05 4.588670272E-04 6.432463579E-06
 9.700000286E-01 1.828655331E-05 4.250103666E-04 7.335167538E-06
 9.700000286E-01 1.904420787E-05 3.945860954E-04 8.337183317E-06
 9.700000286E-01 1.981958121E-05 3.671774175E-04 9.446061085E-06
 9.700000286E-01 2.061339183E-05 3.424262686E-04 1.066934965E-05
 9.700000286E-01 2.142637823E-05 3.200232168E-04 1.201445866E-05
 9.700000286E-01 2.225929893E-05 2.996995463E-04 1.348847945E-05
 9.700000286E-01 2.311292883E-05 2.812207385E-04 1.509800495E-05
 9.700000286E-01 2.398805918E-05 2.643812331E-04 1.684890594E-05
 9.700000286E-01 2.488550672E-05 2.490002080E-04 1.874611007E-05
 9.700000286E-01 2.580610453E-05 2.349179849E-04 2.079336809E-05
 9.700000286E-01 2.675071119E-05 2.219932649E-04 2.299303560E-05
 9.700000286E-01 2.772020343E-05 2.101008140E-04 2.534585474E-05
 9.700000286E-01 2.871548350E-05 1.991294703E-04 2.785079960E-05
 9.700000286E-01 2.973747905E-05 1.889805717E-04 3.050493433E-05
 9.700000286E-01 3.078714144E-05 1.795666467E-04 3.330335676E-05
 9.700000286E-01 3.186544200E-05 1.708101772E-04 3.623918747E-05
 9.700000286E-01 3.297338844E-05 1.626426965E-04 3.930364983E-05
 9.700000286E-01 3.411201033E-05 1.550037850E-04 4.248620462E-05
 9.700000286E-01 3.528236630E-05 1.478403719E-04 4.577475192E-05
 9.700000286E-01 3.648554775E-05 1.411059056E-04 4.915588579E-05
 9.700000286E-01 3.772267155E-05 1.347597135E-04 5.261521073E-05
 9.700000286E-01 3.899488729E-05 1.287663181E-04 5.613764006E-05
 9.700000286E-01 4.030338459E-05 1.230948546E-04 5.970773782E-05
 9.700000286E-01 4.164937127E-05 1.177184968E-04 6.331004988E-05
 9.700000286E-01 4.303410969E-05 1.126139396E-04 6.692938769E-05
 9.700000286E-01 4.445888044E-05 1.077608831E-04 7.055109745E-05
 9.700000286E-01 4.592501136E-05 1.031416396E-04 7.416128938E-05
 9.700000286E-01 4.743386671E-05 9.874071111E-05 7.774700498E-05
 9.700000286E-01 4.898685074E-05 9.454447718E-05 8.129637718E-05
 9.700000286E-01 5.058540773E-05 9.054085967E-05 8.479870303E-05
 9.700000286E-01 5.223102562E-05 8.671908290E-05 8.824447286E-05
 9.700000286E-01 5.392523599E-05 8.306946256E-05 9.162543574E-05
 9.700000286E-01 5.566961045E-05 7.958319475E-05 9.493451216E-05
 9.700000286E-01 5.746577517E-05 7.625224680E-05 9.816580859E-05
 9.700000286E-01 5.931540363E-05 7.306918997E-05 1.013145229E-04
 9.700000286E-01 6.122021296E-05 7.002712664E-05 1.043769153E-04
 9.700000286E-01 6.318197120E-05 6.711960305E-05 1.073501262E-04
 9.700000286E-01 6.520251191E-05 6.434052921E-05 1.102322203E-04
 9.700000286E-01 6.728371227E-05 6.168414984E-05 1.130219753E-04
 9.700000286E-01 6.942750770E-05 5.914501889E-05 1.157188817E-04
 9.700000286E-01 7.163589180E-05 5.671790495E-05 1.183230124E-04
 9.700000286E-01 7.391091640E-05 5.439783854E-05 1.208349422E-04
 9.700000286E-01 7.625470607E-05 5.218006118E-05 1.232556970E-04
 9.700000286E-01 7.866942906E-05 5.006000356E-05 1.255866373E-04
 9.700000286E-01 8.115734818E-05 4.803330376E-05 1.278294658E-04
 9.700000286E-01 8.372076263E-05 4.609575626E-05 1.299861178E-04
 9.700000286E-01 8.636206621E-05 4.424334838E-05 1.320587180E-04
 9.700000286E-01 8.908371092E-05 4.247222023E-05 1.340495364E-04
 9.700000286E-01 9.188823606E-05 4.077868289E-05 1.359609887E-04
 9.700000286E-01 9.477823914E-05 3.915918205E-05 1.377955341E-04
 9.700000286E-01 9.775641956E-05 3.761033804E-05 1.395556901E-04
 9.700000286E-01 1.008255422E-04 3.612890214E-05 1.412440033E-04
 9.700000286E-01 1.039884592E-04 3.471177843E-05 1.428630494E-04
 9.700000286E-01 1.072481246E-04 3.335599104E-05 1.444153168E-04
 9.700000286E-01 1.106075651E-04 3.205871326E-05 1.459033519E-04
 9.700000286E-01 1.140699023E-04 3.081723116E-05 1.473295997E-04
 9.700000286E-01 1.176383594E-04 2.962897088E-05 1.486964902E-04
 9.700000286E-01 1.213162541E-04 2.849146040E-05 1.500063809E-04
 9.700000286E-01 1.251070062E-04 2.740235686E-05 1.512615709E-04
 9.700000286E-01 1.290141663E-04 2.635941746E-05 1.524642721E-04
 9.700000286E-01 1.330413361E-04 2.536050852E-05 1.536166528E-04
 9.700000286E-01 1.371922699E-04 2.440360186E-05 1.547207939E-04
 9.700000286E-01 1.414708386E-04 2.348675662E-05 1.557787036E-04
 9.700000286E-01 1.458810293E-04 2.260813562E-05 1.567923027E-04
 9.700000286E-01 1.504269312E-04 2.176598355E-05 1.577634539E-04
 9.700000286E-01 1.551127643E-04 2.095862874E-05 1.586939325E-04
 9.700000286E-01 1.599429088E-04 2.018448686E-05 1.595854701E-04
 9.700000286E-01 1.649218466E-04 1.944204814E-05 1.604396675E-04
 9.700000286E-01 1.700542198E-04 1.872987195E-05 1.612581109E-04
 9.700000286E-01 1.753448014E-04 1.804659223E-05 1.620422845E-04
 9.700000286E-01 1.807984954E-04 1.739091022E-05 1.627936290E-04
 9.700000286E-01 1.864203950E-04 1.676158536E-05 1.635135122E-04
 9.700000286E-01 1.922157098E-04 1.615744259E-05 1.642032148E-04
 9.700000286E-01 1.981898677E-04 1.557736141E-05 1.648639736E-04
 9.700000286E-01 2.043483837E-04 1.502027771E-05 1.654970110E-04
 9.700000286E-01 2.106970205E-04 1.448517469E-05 1.661034039E-04
 9.700000286E-01 2.172416571E-04 1.397109008E-05 1.666842581E-04
 9.700000286E-01 2.239884052E-04 1.347710440E-05 1.672405779E-04
 9.700000286E-01 2.309435367E-04 1.300234271E-05 1.677733526E-04
 9.700000286E-01 2.381135128E-04 1.254597555E-05 1.682834845E-04
 9.700000286E-01 2.455050126E-04 1.210720802E-05 1.687718614E-04
 9.700000286E-01 2.531248902E-04 1.168528615E-05 1.692393125E-04
 9.700000286E-01 2.609802759E-04 1.127949326E-05 1.696866238E-04
 9.700000286E-01 2.690784459E-04 1.088914269E-05 1.701145520E-04
 9.700000286E-01 2.774269378E-04 1.051358322E-05 1.705238246E-04
 9.700000286E-01 2.860335226E-04 1.015219277E-05 1.709150965E-04
 9.700000286E-01 2.949062036E-04 9.804378351E-06 1.712890225E-04
 9.700000286E-01 3.040532465E-04 9.469576071E-06 1.716462139E-04
 9.700000286E-01 3.134831495E-04 9.147245692E-06 1.719872234E-04
 9.700000286E-01 3.232046729E-04 8.836875168E-06 1.723126188E-04
 9.700000286E-01 3.332268971E-04 8.537974281E-06 1.726229093E-04
 9.700000286E-01 3.435591352E-04 8.250073734E-06 1.729185897E-04
 9.700000286E-01 3.542109625E-04 7.972728781E-06 1.732000965E-04
 9.700000286E-01 3.651923325E-04 7.705511962E-06 1.734678808E-04
 9.700000286E-01 3.765134607E-04 7.448016731E-06 1.737223647E-04
 9.700000286E-01 3.881848534E-04 7.199854281E-06 1.739638828E-04
 9.700000286E-01 4.002173664E-04 6.960653991E-06 1.741928427E-04
 9.700000286E-01 4.126222047E-04 6.730060250E-06 1.744095644E-04
 9.700000286E-01 4.254109226E-04 6.507734724E-06 1.746143680E-04
 9.700000286E-01 4.385953944E-04 6.293352271E-06 1.748075592E-04
 9.700000286E-01 4.521879018E-04 6.086603662E-06 1.749894000E-04
 9.700000286E-01 4.662010761E-04 5.887192401E-06 1.751601521E-04
 9.700000286E-01 4.806479556E-04 5.694834726E-06 1.753200340E-04
 9.700000286E-01 4.955420154E-04 5.509259154E-06 1.754692930E-04
 9.700000286E-01 5.108970799E-04 5.330206022E-06 1.756081328E-04
 9.700000286E-01 5.267274100E-04 5.157426585E-06 1.757366990E-04
 9.700000286E-01 5.430477904E-04 4.990683465E-06 1.758551953E-04
 9.700000286E-01 5.598733551E-04 4.829748377E-06 1.759637526E-04
 9.700000286E-01 5.772197619E-04 4.674402135E-06 1.760625164E-04
 9.700000286E-01 5.951031926E-04 4.524436463E-06 1.761515887E-04
 9.700000286E-01 6.135402364E-04 4.379650363E-06 1.762310858E-04
 9.700000286E-01 6.325480645E-04 4.239851478E-06 1.763010951E-04
 9.700000286E-01 6.521443138E-04 4.104856089E-06 1.763616747E-04
 9.700000286E-01 6.723473198E-04 3.974487299E-06 1.764128974E-04
 9.700000286E-01 6.931758253E-04 3.848575489E-06 1.764548215E-04
 9.700000286E-01 7.146491553E-04 3.726957857E-06 1.764874178E-04
 9.700000286E-01 7.367873332E-04 3.609478654E-06 1.765107590E-04
 9.700000286E-01 7.596109645E-04 3.495988040E-06 1.765248016E-04
 9.700000286E-01 7.831412950E-04 3.386342314E-06 1.765295747E-04
 9.700000286E-01 8.074001526E-04 3.280403462E-06 1.765249908E-04
 9.700000286E-01 8.324101800E-04 3.178038696E-06 1.765110355E-04
 9.700000286E-01 8.581946022E-04 3.079121370E-06 1.764876506E-04
 9.700000286E-01 8.847774006E-04 2.983528930E-06 1.764547633E-04
 9.700000286E-01 9.121833136E-04 2.891143822E-06 1.764122717E-04
 9.700000286E-01 9.404378361E-04 2.801853270E-06 1.763600740E-04
 9.700000286E-01 9.695672779E-04 2.715548817E-06 1.762980537E-04
 9.700000286E-01 9.995986475E-04 2.632125870E-06 1.762260654E-04
 9.700000286E-01 1.030560001E-03 2.551484613E-06 1.761439635E-04
 9.700000286E-01 1.062480151E-03 2.473528184E-06 1.760515734E-04
 9.700000286E-01 1.095388667E-03 2.398164270E-06 1.759487350E-04
 9.700000286E-01 1.129316282E-03 2.325303512E-06 1.758352155E-04
 9.700000286E-01 1.164294430E-03 2.254860192E-06 1.757108112E-04
 9.700000286E-01 1.200355822E-03 2.186751772E-06 1.755752601E-04
 9.700000286E-01 1.237533870E-03 2.120898444E-06 1.754283439E-04
 9.700000286E-01 1.275863266E-03 2.057224265E-06 1.752697717E-04
 9.700000286E-01 1.315379515E-03 1.995655566E-06 1.750992233E-04
 9.700000286E-01 1.356119523E-03 1.936121180E-06 1.749164221E-04
 9.700000286E-01 1.398121123E-03 1.878553235E-06 1.747210044E-04
 9.700000286E-01 1.441423432E-03 1.822885906E-06 1.745126210E-04
 9.700000286E-01 1.486066729E-03 1.769055984E-06 1.742908789E-04
 9.700000286E-01 1.532092574E-03 1.717002533E-06 1.740553853E-04
 9.700000286E-01 1.579543576E-03 1.666667117E-06 1.738056890E-04
 9.700000286E-01 1.628464204E-03 1.617992893E-06 1.735413534E-04
 9.700000286E-01 1.678899745E-03 1.570925633E-06 1.732618839E-04
 9.700000286E-01 1.730897231E-03 1.525412927E-06 1.729667565E-04
 9.700000286E-01 1.784504857E-03 1.481404183E-06 1.726554328E-04
 9.700000286E-01 1.839772798E-03 1.438850745E-06 1.723273308E-04
 9.700000286E-01 1.896752161E-03 1.397705660E-06 1.719818538E-04
 9.700000286E-01 1.955496147E-03 1.357923793E-06 1.716183324E-04
 9.700000286E-01 2.016059356E-03 1.319461489E-06 1.712361118E-04
 9.700000286E-01 2.078498015E-03 1.282276799E-06 1.708344353E-04
 9.700000286E-01 2.142870566E-03 1.246329361E-06 1.704125461E-04
 9.700000286E-01 2.209236380E-03 1.211580070E-06 1.699696586E-04
 9.700000286E-01 2.277657622E-03 1.177991408E-06 1.695048850E-04
 9.700000286E-01 2.348197857E-03 1.145527108E-06 1.690173231E-04
 9.700000286E-01 2.420922508E-03 1.114152383E-06 1.685060270E-04
 9.700000286E-01 2.495899564E-03 1.083833581E-06 1.679699490E-04
 9.700000286E-01 2.573198406E-03 1.054538188E-06 1.674080413E-04
 9.700000286E-01 2.652890980E-03 1.026234941E-06 1.668191398E-04
 9.700000286E-01 2.735051792E-03 9.988939382E-07 1.662020368E-04
 9.700000286E-01 2.819756977E-03 9.724859638E-07 1.655554515E-04
 9.700000286E-01 2.907085465E-03 9.469832207E-07 1.648780017E-04
 9.700000286E-01 2.997118514E-03 9.223587085E-07 1.641682466E-04
 9.700000286E-01 3.089939710E-03 8.985865065E-07 1.634246146E-04
 9.700000286E-01 3.185635433E-03 8.756417174E-07 1.626454905E-04
 9.700000286E-01 3.284294857E-03 8.535000688E-07 1.618290989E-04
 9.700000286E-01 3.386009717E-03 8.321386531E-07 1.609735773E-04
 9.700000286E-01 3.490874544E-03 8.115348464E-07 1.600769319E-04
 9.700000286E-01 3.598987125E-03 7.916672757E-07 1.591370237E-04
 9.700000286E-01 3.710447578E-03 7.725151363E-07 1.581515826E-04
 9.700000286E-01 3.825360211E-03 7.540584761E-07 1.571181492E-04
 9.700000286E-01 3.943831660E-03 7.362780252E-07 1.560341043E-04
 9.700000286E-01 4.065971822E-03 7.191550822E-07 1.548966538E-04
 9.700000286E-01 4.191894550E-03 7.026717412E-07 1.537027856E-04
 9.700000286E-01 4.321717191E-03 6.868105515E-07 1.524492254E-04
 9.700000286E-01 4.455560353E-03 6.715547443E-07 1.511324663E-04
 9.700000286E-01 4.593548831E-03 6.568880053E-07 1.497487392E-04
 9.700000286E-01 4.735810217E-03 6.427943049E-07 1.482939406E-04
 9.700000286E-01 4.882477690E-03 6.292581247E-07 1.467636466E-04
 9.700000286E-01 5.033687688E-03 6.162642876E-07 1.451530261E-04
 9.700000286E-01 5.189579912E-03 6.037977300E-07 1.434568549E-04
 9.700000286E-01 5.350300577E-03 5.918434454E-07 1.416694140E-04
 9.700000286E-01 5.515998229E-03 5.803863701E-07 1.397844608E-04
 9.700000286E-01 5.686827935E-03 5.694112133E-07 1.377951558E-04
 9.700000286E-01 5.862948019E-03 5.589023999E-07 1.356939902E-04
 9.700000286E-01 6.044522393E-03 5.488433885E-07 1.334726985E-04
 9.700000286E-01 6.231720094E-03 5.392169555E-07 1.311221276E-04
 9.700000286E-01 6.424714811E-03 5.300042858E-07 1.286321931E-04
 9.700000286E-01 6.623687223E-03 5.211850862E-07 1.259917481E-04
 9.700000286E-01 6.828821264E-03 5.127366762E-07 1.231886126E-04
 9.700000286E-01 7.040308323E-03 5.046339879E-07 1.202096391E-04
 9.700000286E-01 7.258344907E-03 4.968492249E-07 1.170411124E-04
 9.700000286E-01 7.483134046E-03 4.893519190E-07 1.136696956E-04
 9.700000286E-01 7.714885287E-03 4.821092716E-07 1.100840163E-04
 9.700000286E-01 7.953813300E-03 4.750872051E-07 1.062771553E-04
 9.700000286E-01 8.200140670E-03 4.682516987E-07 1.022496799E-04
 9.700000286E-01 8.454097435E-03 4.615698401E-07 9.801198030E-05
 9.700000286E-01 8.715918288E-03 4.550103370E-07 9.358423267E-05
 9.700000286E-01 8.985848166E-03 4.485428917E-07 8.899241220E-05
 9.700000286E-01 9.264137596E-03 4.421362405E-07 8.426103159E-05
 9.700000286E-01 9.551045485E-03 4.357562773E-07 7.940585056E-05
 9.700000286E-01 9.846839122E-03 4.293637517E-07 7.442979404E-05
 9.700000286E-01 1.015179232E-02 4.229123078E-07 6.932315591E-05
 9.700000286E-01 1.046619099E-02 4.163444203E-07 6.406673492E-05
 9.700000286E-01 1.079032570E-02 4.095849704E-07 5.863599654E-05
 9.700000286E-01 1.112449914E-02 4.025287694E-07 5.300478733E-05
 9.700000286E-01 1.146902237E-02 3.950173095E-07 4.714815077E-05
 9.700000286E-01 1.182421483E-02 3.869023146E-07 4.111925955E-05
 9.700000286E-01 1.219040714E-02 3.779638860E-07 3.496265344E-05
 9.700000286E-01 1.256794017E-02 3.675822882E-07 2.860727000E-05
 9.700000286E-01 1.295716595E-02 3.544903677E-07 2.203018812E-05
 9.700000286E-01 1.335844584E-02 3.359516541E-07 1.536968739E-05
 9.700000286E-01 1.377215330E-02 3.049002828E-07 9.011405382E-06
 9.700000286E-01 1.419867296E-02 2.448325063E-07 3.863586244E-06
 9.700000286E-01 1.463840157E-02 1.538646757E-07 1.013781912E-06
 9.700000286E-01 1.509174798E-02 8.817035280E-08 1.471503452E-07
 9.700000286E-01 1.555913500E-02 7.119130174E-08 1.374970005E-08
 9.700000286E-01 1.604099758E-02 6.939701791E-08 1.483450141E-09
 9.700000286E-01 1.653778180E-02 6.926104135E-08 5.648287393E-10
 9.700000286E-01 1.704995334E-02 6.925153428E-08 5.002231407E-10
 9.700000286E-01 1.757798530E-02 6.925092322E-08 4.958743971E-10
 9.700000286E-01 1.812236942E-02 6.925091611E-08 4.955937327E-10
 9.700000286E-01 1.868361421E-02 6.925095164E-08 4.955763577E-10
 9.700000286E-01 1.926223934E-02 6.925099427E-08 4.955753585E-10
 9.700000286E-01 1.985878497E-02 6.925103690E-08 4.955753585E-10
 9.700000286E-01 2.047380619E-02 6.925108664E-08 4.955754696E-10
 9.700000286E-01 2.110787295E-02 6.925112928E-08 4.955755806E-10
 9.700000286E-01 2.176157758E-02 6.925117901E-08 4.955757471E-10
 9.700000286E-01 2.243552729E-02 6.925122875E-08 4.955759136E-10
 9.700000286E-01 2.313034981E-02 6.925128559E-08 4.955760802E-10
 9.700000286E-01 2.384668961E-02 6.925134244E-08 4.955763577E-10
 9.700000286E-01 2.458521351E-02 6.925139928E-08 4.955765798E-10
 9.700000286E-01 2.534661070E-02 6.925145613E-08 4.955769128E-10
 9.700000286E-01 2.613158710E-02 6.925152007E-08 4.955771904E-10
 9.700000286E-01 2.694087476E-02 6.925158402E-08 4.955775790E-10
 9.700000286E-01 2.777522430E-02 6.925164797E-08 4.955779120E-10
 9.700000286E-01 2.863541432E-02 6.925171903E-08 4.955783561E-10
 9.700000286E-01 2.952224575E-02 6.925179008E-08 4.955787447E-10
 9.700000286E-01 3.043654002E-02 6.925186824E-08 4.955791888E-10
 9.700000286E-01 3.137915209E-02 6.925194640E-08 4.955796884E-10
 9.700000286E-01 3.235095367E-02 6.925202456E-08 4.955801880E-10
 9.700000286E-01 3.335285187E-02 6.925210982E-08 4.955806876E-10
 9.700000286E-01 3.438577801E-02 6.925219509E-08 4.955812427E-10
 9.700000286E-01 3.545069695E-02 6.925228035E-08 4.955818533E-10
 9.700000286E-01 3.654859215E-02 6.925237273E-08 4.955824640E-10
 9.700000286E-01 3.768049181E-02 6.925246510E-08 4.955830746E-10
 9.700000286E-01 3.884744644E-02 6.925256457E-08 4.955837962E-10
 9.700000286E-01 4.005054012E-02 6.925266405E-08 4.955844624E-10
 9.700000286E-01 4.129089043E-02 6.925277063E-08 4.955851840E-10
 9.700000286E-01 4.256965965E-02 6.925287721E-08 4.955859612E-10
 9.700000286E-01 4.388802871E-02 6.925298379E-08 4.955867383E-10
 9.700000286E-01 4.524722695E-02 6.925309748E-08 4.955875155E-10
 9.700000286E-01 4.664851725E-02 6.925321827E-08 4.955883481E-10
 9.700000286E-01 4.809320718E-02 6.925333196E-08 4.955892363E-10
 9.700000286E-01 4.958264157E-02 6.925345986E-08 4.955901800E-10
 9.700000286E-01 5.111819878E-02 6.925358775E-08 4.955911237E-10
 9.700000286E-01 5.270131305E-02 6.925372276E-08 4.955920674E-10
 9.700000286E-01 5.433345586E-02 6.925385776E-08 4.955930666E-10
 9.700000286E-01 5.601614714E-02 6.925399987E-08 4.955940658E-10
 9.700000286E-01 5.775095150E-02 6.925414198E-08 4.955951760E-10
 9.700000286E-01 5.953947827E-02 6.925429119E-08 4.955962862E-10
 9.700000286E-01 6.138340011E-02 6.925444040E-08 4.955973965E-10
 9.700000286E-01 6.328442693E-02 6.925460383E-08 4.955986177E-10
 9.700000286E-01 6.524432451E-02 6.925476015E-08 4.955997834E-10
 9.700000286E-01 6.726492196E-02 6.925493068E-08 4.956010602E-10
 9.700000286E-01 6.934808940E-02 6.925510121E-08 4.956023369E-10
 9.700000286E-01 7.149577886E-02 6.925527885E-08 4.956037247E-10
 9.700000286E-01 7.370998710E-02 6.925546359E-08 4.956050570E-10
 9.700000286E-01 7.599275559E-02 6.925564833E-08 4.956065003E-10
 9.700000286E-01 7.834623009E-02 6.925584017E-08 4.956079436E-10
 9.700000286E-01 8.077258617E-02 6.925603913E-08 4.956094424E-10
 9.700000286E-01 8.327408880E-02 6.925623808E-08 4.956109967E-10
 9.700000286E-01 8.585306257E-02 6.925645124E-08 4.956126065E-10
 9.700000286E-01 8.851190656E-02 6.925666440E-08 4.956142163E-10
 9.700000286E-01 9.125309438E-02 6.925688467E-08 4.956159372E-10
 9.700000286E-01 9.407917410E-02 6.925711915E-08 4.956176580E-10
 9.700000286E-01 9.699277580E-02 6.925735363E-08 4.956194344E-10
 9.700000286E-01 9.999661148E-02 6.925758811E-08 4.956212662E-10
 9.700000286E-01 1.030934751E-01 6.925783680E-08 4.956232091E-10
 9.700000286E-01 1.062862501E-01 6.925809259E-08 4.956251520E-10
 9.700000286E-01 1.095779017E-01 6.925835550E-08 4.956271504E-10
 9.700000286E-01 1.129714921E-01 6.925862550E-08 4.956292043E-10
 9.700000286E-01 1.164701879E-01 6.925890261E-08 4.956313138E-10
 9.700000286E-01 1.200772300E-01 6.925918683E-08 4.956334787E-10
 9.700000286E-01 1.237959862E-01 6.925947105E-08 4.956357547E-10
 9.700000286E-01 1.276299059E-01 6.925977658E-08 4.956380306E-10
 9.700000286E-01 1.315825731E-01 6.926008211E-08 4.956403621E-10
 9.700000286E-01 1.356576383E-01 6.926039475E-08 4.956428046E-10
 9.700000286E-01 1.398589164E-01 6.926072160E-08 4.956453026E-10
 9.700000286E-01 1.441902965E-01 6.926105556E-08 4.956478561E-10
 9.700000286E-01 1.486558318E-01 6.926139662E-08 4.956505206E-10
 9.700000286E-01 1.532596499E-01 6.926174478E-08 4.956531852E-10
 9.700000286E-01 1.580060571E-01 6.926210716E-08 4.956559607E-10
 9.700000286E-01 1.628994495E-01 6.926247664E-08 4.956587918E-10
 9.700000286E-01 1.679444015E-01 6.926285323E-08 4.956616784E-10
 9.700000286E-01 1.731455922E-01 6.926324403E-08 4.956646760E-10
 9.700000286E-01 1.785078496E-01 6.926363483E-08 4.956677291E-10
 9.700000286E-01 1.840361804E-01 6.926404694E-08 4.956708377E-10
 9.700000286E-01 1.897357255E-01 6.926445906E-08 4.956740574E-10
 9.700000286E-01 1.956117898E-01 6.926489249E-08 4.956773880E-10
 9.700000286E-01 2.016698271E-01 6.926532592E-08 4.956807187E-10
 9.700000286E-01 2.079154700E-01 6.926578067E-08 4.956842159E-10
 9.700000286E-01 2.143545449E-01 6.926623541E-08 4.956877131E-10
 9.700000286E-01 2.209930420E-01 6.926671148E-08 4.956913768E-10
 9.700000286E-01 2.278371304E-01 6.926718754E-08 4.956950961E-10
 9.700000286E-01 2.348931730E-01 6.926768492E-08 4.956988708E-10
 9.700000286E-01 2.421677411E-01 6.926818941E-08 4.957027566E-10
 9.700000286E-01 2.496675998E-01 6.926870100E-08 4.957067534E-10
 9.700000286E-01 2.573997378E-01 6.926923390E-08 4.957108057E-10
 9.700000286E-01 2.653713226E-01 6.926976681E-08 4.957149136E-10
 9.700000286E-01 2.735897899E-01 6.927032103E-08 4.957191879E-10
 9.700000286E-01 2.820627689E-01 6.927088236E-08 4.957235178E-10
 9.700000286E-01 2.907981873E-01 6.927145080E-08 4.957279032E-10
 9.700000286E-01 2.998040915E-01 6.927204055E-08 4.957324551E-10
 9.700000286E-01 3.090889454E-01 6.927263740E-08 4.957370625E-10
 9.700000286E-01 3.186613321E-01 6.927324847E-08 4.957417254E-10
 9.700000286E-01 3.285301626E-01 6.927386664E-08 4.957465549E-10
 9.700000286E-01 3.387046456E-01 6.927450613E-08 4.957514399E-10
 9.700000286E-01 3.491942286E-01 6.927514562E-08 4.957563804E-10
 9.700000286E-01 3.600086570E-01 6.927579932E-08 4.957614319E-10
 9.700000286E-01 3.711580336E-01 6.927647433E-08 4.957665944E-10
 9.700000286E-01 3.826526701E-01 6.927714935E-08 4.957718125E-10
 9.700000286E-01 3.945032954E-01 6.927784568E-08 4.957771416E-10
 9.700000286E-01 4.067209363E-01 6.927854201E-08 4.957825261E-10
 9.700000286E-01 4.193169773E-01 6.927925966E-08 4.957880217E-10
 9.700000286E-01 4.323030710E-01 6.927997731E-08 4.957935729E-10
 9.700000286E-01 4.456913769E-01 6.928070917E-08 4.957992350E-10
 9.700000286E-01 4.594942927E-01 6.928144813E-08 4.958048971E-10
 9.700000286E-01 4.737246931E-01 6.928220131E-08 4.958107258E-10
 9.700000286E-01 4.883958101E-01 6.928296159E-08 4.958165545E-10
 9.700000286E-01 5.035212636E-01 6.928372187E-08 4.958224387E-10
 9.700000286E-01 5.191151500E-01 6.928449636E-08 4.958283784E-10
 9.700000286E-01 5.351920128E-01 6.928527796E-08 4.958343736E-10
 9.700000286E-01 5.517667532E-01 6.928605956E-08 4.958404243E-10
 9.700000286E-01 5.688547492E-01 6.928684826E-08 4.958465305E-10
 9.700000286E-01 5.864720345E-01 6.928763696E-08 4.958525812E-10
 9.700000286E-01 6.046348810E-01 6.928842566E-08 4.958586874E-10
 9.700000286E-01 6.233602166E-01 6.928922147E-08 4.958647937E-10
 9.700000286E-01 6.426655054E-01 6.929001017E-08 4.958708999E-10
 9.700000286E-01 6.625686884E-01 6.929079888E-08 4.958769506E-10
 9.700000286E-01 6.830881834E-01 6.929158047E-08 4.958830013E-10
 9.700000286E-01 7.042432427E-01 6.929236207E-08 4.958889965E-10
 9.700000286E-01 7.260534167E-01 6.929312946E-08 4.958948807E-10
 9.700000286E-01 7.485390902E-01 6.929388974E-08 4.959007094E-10
 9.700000286E-01 7.717211246E-01 6.929463581E-08 4.959064270E-10
 9.700000286E-01 7.956210375E-01 6.929536056E-08 4.959120337E-10
 9.700000286E-01 8.202611804E-01 6.929607821E-08 4.959174738E-10
 9.700000286E-01 8.456644416E-01 6.929674612E-08 4.959226363E-10
 9.700000286E-01 8.718544245E-01 6.929743535E-08 4.959278543E-10
 9.700000286E-01 8.988554478E-01 6.929798246E-08 4.959320177E-10
 9.700000286E-01 9.266927242E-01 6.929871432E-08 4.959376243E-10
 9.700000286E-01 9.553921223E-01 6.929855090E-08 4.959361810E-10
 9.700000286E-01 9.849802852E-01 6.929927565E-08 4.959417876E-10
ZONE T="FUN3D"
 9.700000286E-01 2.499999994E-07 2.889975071E+00 1.740297836E-11
 9.700000286E-01 7.502325730E-07 3.840923011E-01 1.972283309E-10
 9.700000286E-01 1.251163098E-06 1.213664412E-01 9.477431062E-10
 9.700000286E-01 1.753257607E-06 5.651589110E-02 2.915433672E-09
 9.700000286E-01 2.256983180E-06 3.217800334E-02 6.885359838E-09
 9.700000286E-01 2.762808435E-06 2.063824795E-02 1.374099146E-08
 9.700000286E-01 3.271203923E-06 1.430725399E-02 2.445472269E-08
 9.700000286E-01 3.782642807E-06 1.047301292E-02 4.008857957E-08
 9.700000286E-01 4.297600753E-06 7.979686372E-03 6.179950418E-08
 9.700000286E-01 4.816556611E-06 6.269178819E-03 9.084732966E-08
 9.700000286E-01 5.339993095E-06 5.045763217E-03 1.286047961E-07
 9.700000286E-01 5.868397693E-06 4.141062964E-03 1.765693725E-07
 9.700000286E-01 6.402261988E-06 3.453564364E-03 2.363762661E-07
 9.700000286E-01 6.942082109E-06 2.919143066E-03 3.098130321E-07
 9.700000286E-01 7.488360552E-06 2.495690947E-03 3.988356525E-07
 9.700000286E-01 8.041605724E-06 2.154637827E-03 5.055854899E-07
 9.700000286E-01 8.602331945E-06 1.876048977E-03 6.324077617E-07
 9.700000286E-01 9.171060810E-06 1.645674463E-03 7.818711083E-07
 9.700000286E-01 9.748321645E-06 1.453109086E-03 9.567879715E-07
 9.700000286E-01 1.033465105E-05 1.290612738E-03 1.160235115E-06
 9.700000286E-01 1.093059564E-05 1.152330777E-03 1.395576419E-06
 9.700000286E-01 1.153670928E-05 1.033769106E-03 1.666482717E-06
 9.700000286E-01 1.215355496E-05 9.314313065E-04 1.976952944E-06
 9.700000286E-01 1.278170748E-05 8.425637498E-04 2.331334599E-06
 9.700000286E-01 1.342175074E-05 7.649738691E-04 2.734339205E-06
 9.700000286E-01 1.407428044E-05 6.968981470E-04 3.191056066E-06
 9.700000286E-01 1.473990324E-05 6.369045586E-04 3.706959433E-06
 9.700000286E-01 1.541924030E-05 5.838201614E-04 4.287911906E-06
 9.700000286E-01 1.611291918E-05 5.366769037E-04 4.940150120E-06
 9.700000286E-01 1.682159018E-05 4.946687841E-04 5.670276096E-06
 9.700000286E-01 1.754590994E-05 4.571207683E-04 6.485208814E-06
 9.700000286E-01 1.828655331E-05 4.234633525E-04 7.392145108E-06
 9.700000286E-01 1.904420787E-05 3.932128311E-04 8.398479622E-06
 9.700000286E-01 1.981958121E-05 3.659558424E-04 9.511722965E-06
 9.700000286E-01 2.061339183E-05 3.413373779E-04 1.073936437E-05
 9.700000286E-01 2.142637823E-05 3.190505668E-04 1.208874801E-05
 9.700000286E-01 2.225929893E-05 2.988287597E-04 1.356689609E-05
 9.700000286E-01 2.311292883E-05 2.804392716E-04 1.518031604E-05
 9.700000286E-01 2.398805918E-05 2.636782301E-04 1.693477680E-05
 9.700000286E-01 2.488550672E-05 2.483660646E-04 1.883511686E-05
 9.700000286E-01 2.580610453E-05 2.343443630E-04 2.088498513E-05
 9.700000286E-01 2.675071119E-05 2.214728593E-04 2.308663352E-05
 9.700000286E-01 2.772020343E-05 2.096272656E-04 2.544070594E-05
 9.700000286E-01 2.871548350E-05 1.986972202E-04 2.794609281E-05
 9.700000286E-01 2.973747905E-05 1.885847887E-04 3.059979281E-05
 9.700000286E-01 3.078714144E-05 1.792031107E-04 3.339684190E-05
 9.700000286E-01 3.186544200E-05 1.704753231E-04 3.633032247E-05
 9.700000286E-01 3.297338844E-05 1.623333810E-04 3.939145972E-05
 9.700000286E-01 3.411201033E-05 1.547173306E-04 4.256971806E-05
 9.700000286E-01 3.528236630E-05 1.475744648E-04 4.585303031E-05
 9.700000286E-01 3.648554775E-05 1.408585522E-04 4.922806329E-05
 9.700000286E-01 3.772267155E-05 1.345291967E-04 5.268049426E-05
 9.700000286E-01 3.899488729E-05 1.285511826E-04 5.619532021E-05
 9.700000286E-01 4.030338459E-05 1.228938199E-04 5.975721797E-05
 9.700000286E-01 4.164937127E-05 1.175304787E-04 6.335082435E-05
 9.700000286E-01 4.303410969E-05 1.124379269E-04 6.696108903E-05
 9.700000286E-01 4.445888044E-05 1.075960172E-04 7.057344192E-05
 9.700000286E-01 4.592501136E-05 1.029871491E-04 7.417410234E-05
 9.700000286E-01 4.743386671E-05 9.859589773E-05 7.775022095E-05
 9.700000286E-01 4.898685074E-05 9.440869326E-05 8.129001071E-05
 9.700000286E-01 5.058540773E-05 9.041353042E-05 8.478284144E-05
 9.700000286E-01 5.223102562E-05 8.659966988E-05 8.821928350E-05
 9.700000286E-01 5.392523599E-05 8.295745647E-05 9.159112960E-05
 9.700000286E-01 5.566961045E-05 7.947813720E-05 9.489135118E-05
 9.700000286E-01 5.746577517E-05 7.615370851E-05 9.811409109E-05
 9.700000286E-01 5.931540363E-05 7.297674892E-05 1.012545908E-04
 9.700000286E-01 6.122021296E-05 6.994039722E-05 1.043090888E-04
 9.700000286E-01 6.318197120E-05 6.703822146E-05 1.072747837E-04
 9.700000286E-01 6.520251191E-05 6.426416076E-05 1.101497182E-04
 9.700000286E-01 6.728371227E-05 6.161248893E-05 1.129326920E-04
 9.700000286E-01 6.942750770E-05 5.907774175E-05 1.156231883E-04
 9.700000286E-01 7.163589180E-05 5.665473509E-05 1.182212654E-04
 9.700000286E-01 7.391091640E-05 5.433851766E-05 1.207274836E-04
 9.700000286E-01 7.625470607E-05 5.212432734E-05 1.231428760E-04
 9.700000286E-01 7.866942906E-05 5.000763849E-05 1.254687813E-04