variables="x","cf"
zone, t="CFL3D"
 2.780639759E-16 1.686800271E-02
 7.999999798E-04 2.158738486E-02
 1.606264967E-03 8.355959319E-03
 2.418837277E-03 7.008300629E-03
 3.237759229E-03 6.205947138E-03
 4.063073546E-03 5.615990609E-03
 4.894822836E-03 5.164808594E-03
 5.733050406E-03 4.802445415E-03
 6.577799562E-03 4.504471086E-03
 7.429112680E-03 4.254215863E-03
 8.287033997E-03 4.041098990E-03
 9.151606821E-03 3.857939970E-03
 1.002287492E-02 3.700718284E-03
 1.090088207E-02 3.569163382E-03
 1.178567298E-02 3.468325129E-03
 1.267729141E-02 3.409530036E-03
 1.357578207E-02 3.408497199E-03
 1.448118873E-02 3.479228122E-03
 1.539355703E-02 3.625420155E-03
 1.631293073E-02 3.834973089E-03
 1.723935641E-02 4.082077648E-03
 1.817287691E-02 4.335949197E-03
 1.911354065E-02 4.570732825E-03
 2.006139047E-02 4.770983011E-03
 2.101647109E-02 4.931546748E-03
 2.197883092E-02 5.054114386E-03
 2.294851467E-02 5.143457558E-03
 2.392556891E-02 5.205065943E-03
 2.491003834E-02 5.244116299E-03
 2.590196952E-02 5.265200045E-03
 2.690140903E-02 5.272285547E-03
 2.790840343E-02 5.268708337E-03
 2.892299928E-02 5.257181358E-03
 2.994524129E-02 5.239837803E-03
 3.097517975E-02 5.218309816E-03
 3.201285750E-02 5.193822086E-03
 3.305832669E-02 5.167283583E-03
 3.411163017E-02 5.139371846E-03
 3.517281637E-02 5.110590719E-03
 3.624192998E-02 5.081318785E-03
 3.731902316E-02 5.051839165E-03
 3.840414062E-02 5.022365600E-03
 3.949733078E-02 4.993058741E-03
 4.059864208E-02 4.964036867E-03
 4.170811921E-02 4.935387056E-03
 4.282581061E-02 4.907173105E-03
 4.395176470E-02 4.879439250E-03
 4.508602992E-02 4.852214828E-03
 4.622865468E-02 4.825519398E-03
 4.737968370E-02 4.799362738E-03
 4.853916913E-02 4.773748573E-03
 4.970715567E-02 4.748675972E-03
 5.088369548E-02 4.724139813E-03
 5.206883326E-02 4.700131714E-03
 5.326262116E-02 4.676641896E-03
 5.446510017E-02 4.653658252E-03
 5.567632616E-02 4.631167743E-03
 5.689634383E-02 4.609156866E-03
 5.812519789E-02 4.587610718E-03
 5.936294422E-02 4.566515330E-03
 6.060962752E-02 4.545855802E-03
 6.186529621E-02 4.525617696E-03
 6.312999874E-02 4.505786579E-03
 6.440377980E-02 4.486349411E-03
 6.568669528E-02 4.467291757E-03
 6.697878242E-02 4.448601510E-03
 6.828010082E-02 4.430265632E-03
 6.959069520E-02 4.412271082E-03
 7.091061771E-02 4.394606687E-03
 7.223990560E-02 4.377260804E-03
 7.357861102E-02 4.360221326E-03
 7.492678612E-02 4.343478475E-03
 7.628447562E-02 4.327021074E-03
 7.765173167E-02 4.310838878E-03
 7.902859896E-02 4.294922575E-03
 8.041512221E-02 4.279262386E-03
 8.181135356E-02 4.263848998E-03
 8.321733773E-02 4.248674493E-03
 8.463312685E-02 4.233730026E-03
 8.605875820E-02 4.219008144E-03
 8.749429882E-02 4.204501398E-03
 8.893977106E-02 4.190201871E-03
 9.039524198E-02 4.176103976E-03
 9.186074883E-02 4.162200261E-03
 9.333634377E-02 4.148484673E-03
 9.482206404E-02 4.134950694E-03
 9.631796926E-02 4.121592734E-03
 9.782408923E-02 4.108405206E-03
 9.934049100E-02 4.095382057E-03
 1.008672044E-01 4.082518164E-03
 1.024042815E-01 4.069808871E-03
 1.039517671E-01 4.057248589E-03
 1.055097058E-01 4.044832662E-03
 1.070781425E-01 4.032556899E-03
 1.086571217E-01 4.020417109E-03
 1.102466956E-01 4.008408170E-03
 1.118469015E-01 3.996526357E-03
 1.134577915E-01 3.984767478E-03
 1.150793955E-01 3.973128274E-03
 1.167117655E-01 3.961604089E-03
 1.183549538E-01 3.950192127E-03
 1.200089902E-01 3.938888665E-03
 1.216739267E-01 3.927689977E-03
 1.233498007E-01 3.916592803E-03
 1.250366569E-01 3.905593883E-03
 1.267345399E-01 3.894690424E-03
 1.284434944E-01 3.883878933E-03
 1.301635504E-01 3.873156849E-03
 1.318947524E-01 3.862520680E-03
 1.336371601E-01 3.851968097E-03
 1.353907883E-01 3.841496073E-03
 1.371556818E-01 3.831101814E-03
 1.389319003E-01 3.820782760E-03
 1.407194734E-01 3.810536349E-03
 1.425184160E-01 3.800359787E-03
 1.443288028E-01 3.790250979E-03
 1.461506635E-01 3.780206898E-03
 1.479840279E-01 3.770225681E-03
 1.498289257E-01 3.760304535E-03
 1.516854167E-01 3.750441363E-03
 1.535535157E-01 3.740633605E-03
 1.554332823E-01 3.730879165E-03
 1.573247313E-01 3.721175482E-03
 1.592279077E-01 3.711520694E-03
 1.611428410E-01 3.701912239E-03
 1.630695611E-01 3.692348022E-03
 1.650081277E-01 3.682825714E-03
 1.669585407E-01 3.673343221E-03
 1.689208597E-01 3.663898446E-03
 1.708951145E-01 3.654488828E-03
 1.728813201E-01 3.645112505E-03
 1.748795062E-01 3.635767149E-03
 1.768897325E-01 3.626450431E-03
 1.789119989E-01 3.617160255E-03
 1.809463501E-01 3.607894294E-03
 1.829928160E-01 3.598650452E-03
 1.850514114E-01 3.589426167E-03
 1.871221811E-01 3.580219578E-03
 1.892051548E-01 3.571027890E-03
 1.913003325E-01 3.561849240E-03
 1.934077740E-01 3.552681068E-03
 1.955274791E-01 3.543520812E-03
 1.976594776E-01 3.534365213E-03
 1.998037994E-01 3.525210777E-03
 2.041295022E-01 3.506899811E-03
 2.063109279E-01 3.497740254E-03
 2.085047662E-01 3.488574177E-03
 2.107110322E-01 3.479398321E-03
 2.129297554E-01 3.470209893E-03
 2.151609361E-01 3.461005399E-03
 2.174046040E-01 3.451782046E-03
 2.196607888E-01 3.442536108E-03
 2.219294906E-01 3.433264559E-03
 2.242107242E-01 3.423963906E-03
 2.265045196E-01 3.414630424E-03
 2.288108766E-01 3.405260388E-03
 2.311298251E-01 3.395849839E-03
 2.334613651E-01 3.386394586E-03
 2.358054966E-01 3.376890905E-03
 2.381622493E-01 3.367333906E-03
 2.405316383E-01 3.357718932E-03
 2.429136485E-01 3.348041326E-03
 2.453083098E-01 3.338295966E-03
 2.477156222E-01 3.328477498E-03
 2.501356006E-01 3.318580100E-03
 2.525682449E-01 3.308597952E-03
 2.550135255E-01 3.298524534E-03
 2.574715018E-01 3.288353328E-03
 2.599421442E-01 3.278076882E-03
 2.624254823E-01 3.267687513E-03
 2.649214864E-01 3.257177304E-03
 2.674301565E-01 3.246537177E-03
 2.699515224E-01 3.235757584E-03
 2.724855542E-01 3.224828048E-03
 2.750322521E-01 3.213737393E-03
 2.775916159E-01 3.202473279E-03
 2.801636457E-01 3.191021737E-03
 2.827483416E-01 3.179368097E-03
 2.853456736E-01 3.167495364E-03
 2.879556417E-01 3.155384911E-03
 2.905782461E-01 3.143014386E-03
 2.932134569E-01 3.130357945E-03
 2.958613038E-01 3.117383691E-03
 2.985217273E-01 3.104054835E-03
 3.011947274E-01 3.090327838E-03
 3.038803041E-01 3.076168941E-03
 3.065784574E-01 3.061567666E-03
 3.092890978E-01 3.046531929E-03
 3.120122850E-01 3.031073371E-03
 3.147479594E-01 3.015207127E-03
 3.174961209E-01 2.998950658E-03
 3.202567399E-01 2.982323756E-03
 3.230297565E-01 2.965349238E-03
 3.258152306E-01 2.948053414E-03
 3.286130428E-01 2.930463059E-03
 3.314232230E-01 2.912611933E-03
 3.342457414E-01 2.894555451E-03
 3.370805681E-01 2.876325278E-03
 3.399276435E-01 2.857926069E-03
 3.427869678E-01 2.839401830E-03
 3.456584811E-01 2.820789116E-03
 3.485421836E-01 2.802169416E-03
 3.514380157E-01 2.783640753E-03
 3.543459177E-01 2.765169833E-03
 3.572659194E-01 2.746731974E-03
 3.601979017E-01 2.728465013E-03
 3.631418645E-01 2.710527740E-03
 3.660977483E-01 2.692857757E-03
 3.690654933E-01 2.675360302E-03
 3.720450699E-01 2.658327110E-03
 3.750364482E-01 2.641874831E-03
 3.780395389E-01 2.625686349E-03
 3.810542822E-01 2.610089956E-03
 3.840806186E-01 2.595257247E-03
 3.871185184E-01 2.580863191E-03
 3.901678622E-01 2.567288466E-03
 3.932286203E-01 2.554410603E-03
 3.963007331E-01 2.542308997E-03
 3.993840814E-01 2.531278646E-03
 4.024785757E-01 2.520978684E-03
 4.055841863E-01 2.511677099E-03
 4.087007940E-01 2.503402997E-03
 4.118283093E-01 2.496164059E-03
 4.149666429E-01 2.490075538E-03
 4.181156456E-01 2.485097619E-03
 4.212752879E-01 2.481370233E-03
 4.244453907E-01 2.478826325E-03
 4.276258647E-01 2.477623057E-03
 4.308166206E-01 2.477677772E-03
 4.340174794E-01 2.479126910E-03
 4.372283220E-01 2.482020296E-03
 4.404490292E-01 2.486229874E-03
 4.436794519E-01 2.492147265E-03
 4.469194710E-01 2.499314956E-03
 4.501688778E-01 2.508061938E-03
 4.534275532E-01 2.518500434E-03
 4.566953778E-01 2.530263970E-03
 4.599721134E-01 2.543993061E-03
 4.632576406E-01 2.559107495E-03
 4.665518105E-01 2.575729741E-03
 4.698544145E-01 2.594548743E-03
 4.731652737E-01 2.614679048E-03
 4.764842689E-01 2.636341611E-03
 4.798111618E-01 2.660235623E-03
 4.831458032E-01 2.685690764E-03
 4.864880145E-01 2.712514717E-03
 4.898376465E-01 2.741441596E-03
 4.931944907E-01 2.772414358E-03
 4.965583980E-01 2.804722171E-03
 4.999292195E-01 2.838674001E-03
 5.033067465E-01 2.874838887E-03
 5.066908002E-01 2.912853844E-03
 5.100812912E-01 2.952309093E-03
 5.134780407E-01 2.993367612E-03
 5.168808699E-01 3.036536509E-03
 5.202897191E-01 3.081767354E-03
 5.237043500E-01 3.128419397E-03
 5.271247625E-01 3.176599741E-03
 5.305507779E-01 3.226542147E-03
 5.339823365E-01 3.278439865E-03
 5.374191999E-01 3.332266817E-03
 5.408614874E-01 3.387492849E-03
 5.443089604E-01 3.444199450E-03
 5.477616787E-01 3.502567764E-03
 5.512195230E-01 3.562512808E-03
 5.546824932E-01 3.624188714E-03
 5.581504703E-01 3.687511198E-03
 5.616235137E-01 3.752123564E-03
 5.651015639E-01 3.818063531E-03
 5.685847402E-01 3.885409562E-03
 5.720728636E-01 3.954072483E-03
 5.755661130E-01 4.024001304E-03
 5.790644884E-01 4.095148295E-03
 5.825679898E-01 4.167476669E-03
 5.860767365E-01 4.240848124E-03
 5.895906687E-01 4.315113183E-03
 5.931099653E-01 4.390227608E-03
 5.966346264E-01 4.466126673E-03
 6.001648307E-01 4.542695358E-03
 6.037005186E-01 4.619817715E-03
 6.072419286E-01 4.697374534E-03
 6.107890606E-01 4.775235895E-03
 6.143419743E-01 4.853261169E-03
 6.179008484E-01 4.931301810E-03
 6.214657426E-01 5.009194836E-03
 6.250367761E-01 5.086773541E-03
 6.286140084E-01 5.163858179E-03
 6.321974993E-01 5.240254104E-03
 6.357874274E-01 5.315762945E-03
 6.393837333E-01 5.390174687E-03
 6.429865360E-01 5.463263020E-03
 6.465959549E-01 5.534796510E-03
 6.502119303E-01 5.604538135E-03
 6.538345814E-01 5.672232248E-03
 6.574639082E-01 5.737615284E-03
 6.610997915E-01 5.800427869E-03
 6.647424102E-01 5.860398058E-03
 6.683915854E-01 5.917244125E-03
 6.720473170E-01 5.970689002E-03
 6.757094860E-01 6.020448636E-03
 6.793780923E-01 6.066250149E-03
 6.830529571E-01 6.107833702E-03
 6.867339015E-01 6.144942716E-03
 6.904208660E-01 6.177319679E-03
 6.941135526E-01 6.204696838E-03
 6.978118420E-01 6.226256955E-03
 7.015154362E-01 6.241774186E-03
 7.052240968E-01 6.251925137E-03
 7.089375854E-01 6.256395951E-03
 7.126555443E-01 6.254711654E-03
 7.163776159E-01 6.246836390E-03
 7.201035023E-01 6.232661661E-03
 7.238328457E-01 6.211702246E-03
 7.275652289E-01 6.183354650E-03
 7.313002348E-01 6.148291752E-03
 7.350375056E-01 6.107270718E-03
 7.387765050E-01 6.059979089E-03
 7.425169349E-01 6.006240379E-03
 7.462582588E-01 5.946320482E-03
 7.537417412E-01 5.805524532E-03
 7.574830651E-01 5.726630334E-03
 7.612234950E-01 5.642787088E-03
 7.649624944E-01 5.553558003E-03
 7.686997652E-01 5.459445529E-03
 7.724347711E-01 5.360362586E-03
 7.761671543E-01 5.256234668E-03
 7.798964977E-01 5.148111843E-03
 7.836223841E-01 5.036988761E-03
 7.873444557E-01 4.922865890E-03
 7.910624146E-01 4.805937875E-03
 7.947759032E-01 4.686635919E-03
 7.984845638E-01 4.565399140E-03
 8.021881580E-01 4.442266189E-03
 8.058864474E-01 4.317529500E-03
 8.095791340E-01 4.192338325E-03
 8.132660985E-01 4.067089409E-03
 8.169470429E-01 3.941811156E-03
 8.206219077E-01 3.816913581E-03
 8.242905140E-01 3.692734754E-03
 8.279526830E-01 3.569608321E-03
 8.316084146E-01 3.447850700E-03
 8.352575898E-01 3.327761544E-03
 8.389002085E-01 3.209618852E-03
 8.425360918E-01 3.093685256E-03
 8.461654186E-01 2.980199875E-03
 8.497880697E-01 2.869385527E-03
 8.534040451E-01 2.761449199E-03
 8.570134640E-01 2.656571101E-03
 8.606162667E-01 2.554911422E-03
 8.642125726E-01 2.456615912E-03
 8.678025007E-01 2.361809602E-03
 8.713859916E-01 2.270593308E-03
 8.749632239E-01 2.183054341E-03
 8.785342574E-01 2.099261386E-03
 8.820991516E-01 2.019261243E-03
 8.856580257E-01 1.943085110E-03
 8.892109394E-01 1.870749635E-03
 8.927580714E-01 1.802251558E-03
 8.962994814E-01 1.737574115E-03
 8.998351693E-01 1.676685875E-03
 9.033653736E-01 1.619541901E-03
 9.068900347E-01 1.566088642E-03
 9.104093313E-01 1.516261254E-03
 9.139232635E-01 1.469975803E-03
 9.174320102E-01 1.427162904E-03
 9.209355116E-01 1.387766562E-03
 9.244338870E-01 1.351664192E-03
 9.279271364E-01 1.318720519E-03
 9.314152598E-01 1.288841595E-03
 9.348984361E-01 1.261926373E-03
 9.383764863E-01 1.237881021E-03
 9.418495297E-01 1.216563862E-03
 9.453175068E-01 1.197927748E-03
 9.487804770E-01 1.181953703E-03
 9.522383213E-01 1.168396557E-03
 9.556910396E-01 1.157113235E-03
 9.591385126E-01 1.148093375E-03
 9.625808001E-01 1.141181914E-03
 9.660176635E-01 1.136383973E-03
 9.694492221E-01 1.133738784E-03
 9.728752375E-01 1.132938894E-03
 9.762956500E-01 1.133880811E-03
 9.797102809E-01 1.136525068E-03
 9.831191301E-01 1.140905195E-03
 9.865219593E-01 1.147110364E-03
 9.899187088E-01 1.154799364E-03
 9.933091998E-01 1.163814683E-03
 9.966932535E-01 1.174286241E-03
 1.000070810E+00 1.186303445E-03
 1.003441572E+00 1.199688064E-03
 1.006805539E+00 1.214125659E-03
 1.010162354E+00 1.229774789E-03
 1.013512015E+00 1.246831263E-03
 1.016854167E+00 1.264925348E-03
 1.020188808E+00 1.283864258E-03
 1.023515701E+00 1.303961733E-03
 1.026834726E+00 1.325172721E-03
 1.030145645E+00 1.347022131E-03
 1.033448219E+00 1.369763631E-03
 1.036742330E+00 1.393556944E-03
 1.040027857E+00 1.417826395E-03
 1.043304682E+00 1.442841487E-03
 1.046572447E+00 1.468654256E-03
 1.049831152E+00 1.494853292E-03
 1.053080559E+00 1.521741273E-03
 1.056320548E+00 1.549033099E-03
 1.059551001E+00 1.576710492E-03
 1.062771678E+00 1.604914898E-03
 1.065982580E+00 1.633303240E-03
 1.069183350E+00 1.662030234E-03
 1.072374105E+00 1.690939185E-03
 1.075554609E+00 1.719987253E-03
 1.078724742E+00 1.749175484E-03
 1.081884384E+00 1.778379432E-03
 1.085033417E+00 1.807619701E-03
 1.088171721E+00 1.836772775E-03
 1.091299176E+00 1.865852741E-03
 1.094415784E+00 1.894749701E-03
 1.097521424E+00 1.923466334E-03
 1.100615978E+00 1.951922546E-03
 1.103699327E+00 1.980055822E-03
 1.106771350E+00 2.007984323E-03
 1.109832168E+00 2.035401529E-03
 1.112881541E+00 2.062418498E-03
 1.115919352E+00 2.089009387E-03
 1.118945718E+00 2.115023322E-03
 1.121960521E+00 2.140656346E-03
 1.124963522E+00 2.165617421E-03
 1.127954960E+00 2.189942868E-03
 1.130934477E+00 2.213802887E-03
 1.133902311E+00 2.236931119E-03
 1.136858106E+00 2.259325935E-03
 1.139802098E+00 2.281132154E-03
 1.142734051E+00 2.302252455E-03
 1.145654082E+00 2.322583925E-03
 1.148561954E+00 2.342175692E-03
 1.151457787E+00 2.361090621E-03
 1.154341459E+00 2.379282378E-03
 1.157212973E+00 2.396685770E-03
 1.160072327E+00 2.413328737E-03
 1.162919402E+00 2.429240616E-03
 1.165754199E+00 2.444428392E-03
 1.168576717E+00 2.458905568E-03
 1.171386957E+00 2.472659107E-03
 1.174184799E+00 2.485697623E-03
 1.176970243E+00 2.498051617E-03
 1.179743290E+00 2.509742277E-03
 1.182503939E+00 2.520791255E-03
 1.185252070E+00 2.531222999E-03
 1.187987685E+00 2.541065449E-03
 1.190710902E+00 2.550350036E-03
 1.193421602E+00 2.559112618E-03
 1.196119666E+00 2.567394637E-03
 1.198805213E+00 2.575242426E-03
 1.201478243E+00 2.582706511E-03
 1.204138756E+00 2.589830663E-03
 1.206786513E+00 2.596640261E-03
 1.209421754E+00 2.603151836E-03
 1.212044358E+00 2.609380288E-03
 1.214654326E+00 2.615339821E-03
 1.217251658E+00 2.621044405E-03
 1.219836354E+00 2.626506845E-03
 1.222408414E+00 2.631739248E-03
 1.224967718E+00 2.636753488E-03
 1.227514505E+00 2.641559811E-03
 1.230048537E+00 2.646168461E-03
 1.232569814E+00 2.650589217E-03
 1.235078573E+00 2.654830692E-03
 1.237574458E+00 2.658901270E-03
 1.240057826E+00 2.662809100E-03
 1.242528439E+00 2.666561631E-03
 1.244986415E+00 2.670165850E-03
 1.247431755E+00 2.673628274E-03
 1.249864459E+00 2.676955657E-03
 1.252284408E+00 2.680153586E-03
 1.254691720E+00 2.683227882E-03
 1.257086396E+00 2.686184132E-03
 1.259468317E+00 2.689026995E-03
 1.261837721E+00 2.691761591E-03
 1.264194489E+00 2.694392344E-03
 1.266538620E+00 2.696923912E-03
 1.268870234E+00 2.699360251E-03
 1.271189094E+00 2.701705322E-03
 1.273495436E+00 2.703962848E-03
 1.275789261E+00 2.706136322E-03
 1.278070450E+00 2.708229236E-03
 1.280339241E+00 2.710244851E-03
 1.282595396E+00 2.712185960E-03
 1.284839034E+00 2.714055590E-03
 1.287070274E+00 2.715856303E-03
 1.289288998E+00 2.717591356E-03
 1.291495204E+00 2.719263546E-03
 1.293689013E+00 2.720874967E-03
 1.295870543E+00 2.722429344E-03
 1.300196171E+00 2.725377213E-03
 1.302340508E+00 2.726772102E-03
 1.304472566E+00 2.728116466E-03
 1.306592226E+00 2.729412634E-03
 1.308699608E+00 2.730662469E-03
 1.310794830E+00 2.731867600E-03
 1.312877774E+00 2.733030124E-03
 1.314948559E+00 2.734151436E-03
 1.317007184E+00 2.735232934E-03
 1.319053650E+00 2.736276481E-03
 1.321087956E+00 2.737283474E-03
 1.323110223E+00 2.738254843E-03
 1.325120449E+00 2.739192452E-03
 1.327118635E+00 2.740097232E-03
 1.329104900E+00 2.740970580E-03
 1.331079125E+00 2.741813427E-03
 1.333041430E+00 2.742627170E-03
 1.334991932E+00 2.743412741E-03
 1.336930394E+00 2.744171303E-03
 1.338857174E+00 2.744903788E-03
 1.340772152E+00 2.745610895E-03
 1.342675328E+00 2.746294020E-03
 1.344566703E+00 2.746953862E-03
 1.346446514E+00 2.747591119E-03
 1.348314643E+00 2.748206956E-03
 1.350171089E+00 2.748801839E-03
 1.352015972E+00 2.749376697E-03
 1.353849292E+00 2.749932464E-03
 1.355671167E+00 2.750469605E-03
 1.357481599E+00 2.750988817E-03
 1.359280586E+00 2.751491033E-03
 1.361068130E+00 2.751976717E-03
 1.362844348E+00 2.752446337E-03
 1.364609241E+00 2.752900822E-03
 1.366362810E+00 2.753340639E-03
 1.368105292E+00 2.753766486E-03
 1.369836450E+00 2.754178597E-03
 1.371556520E+00 2.754577901E-03
 1.373265505E+00 2.754964633E-03
 1.374963284E+00 2.755339490E-03
 1.376650214E+00 2.755702939E-03
 1.378326058E+00 2.756055212E-03
 1.379991055E+00 2.756397240E-03
 1.381645083E+00 2.756729256E-03
 1.383288264E+00 2.757051494E-03
 1.384920597E+00 2.757364884E-03
 1.386542201E+00 2.757669194E-03
 1.388153076E+00 2.757965587E-03
 1.389753342E+00 2.758253831E-03
 1.391342878E+00 2.758534625E-03
 1.392921805E+00 2.758808434E-03
 1.394490242E+00 2.759075258E-03
 1.396048188E+00 2.759336028E-03
 1.397595763E+00 2.759590512E-03
 1.399132848E+00 2.759839408E-03
 1.400659561E+00 2.760083182E-03
 1.402175903E+00 2.760321833E-03
 1.403681993E+00 2.760555828E-03
 1.405177951E+00 2.760785632E-03
 1.406663656E+00 2.761011478E-03
 1.408139229E+00 2.761233598E-03
 1.409604788E+00 2.761452459E-03
 1.411060214E+00 2.761668060E-03
 1.412505746E+00 2.761881100E-03
 1.413941264E+00 2.762091812E-03
 1.415366888E+00 2.762300195E-03
 1.416782618E+00 2.762506949E-03
 1.418188691E+00 2.762712073E-03
 1.419584870E+00 2.762916032E-03
 1.420971394E+00 2.763119061E-03
 1.422348261E+00 2.763321158E-03
 1.423715472E+00 2.763523255E-03
 1.425073266E+00 2.763725119E-03
 1.426421404E+00 2.763927216E-03
 1.427760124E+00 2.764129778E-03
 1.429089427E+00 2.764333272E-03
 1.430409312E+00 2.764537698E-03
 1.431719899E+00 2.764743753E-03
 1.433021188E+00 2.764951438E-03
 1.434313297E+00 2.765161218E-03
 1.435596228E+00 2.765373327E-03
 1.436869979E+00 2.765587997E-03
 1.438134670E+00 2.765805693E-03
 1.439390421E+00 2.766026882E-03
 1.440637112E+00 2.766251564E-03
 1.441874743E+00 2.766480437E-03
 1.443103671E+00 2.766713733E-03
 1.444323659E+00 2.766951919E-03
 1.445534945E+00 2.767195227E-03
 1.446737409E+00 2.767444123E-03
 1.447931170E+00 2.767699305E-03
 1.449116349E+00 2.767960774E-03
 1.450292826E+00 2.768229228E-03
 1.451460838E+00 2.768505365E-03
 1.452620268E+00 2.768789418E-03
 1.453771353E+00 2.769082086E-03
 1.454913974E+00 2.769384068E-03
 1.456048250E+00 2.769695828E-03
 1.457174182E+00 2.770018065E-03
 1.458291888E+00 2.770351712E-03
 1.459401369E+00 2.770697465E-03
 1.460502625E+00 2.771056024E-03
 1.461595893E+00 2.771428553E-03
 1.462680936E+00 2.771815984E-03
 1.463758111E+00 2.772219246E-03
 1.464827180E+00 2.772639738E-03
 1.465888381E+00 2.773078857E-03
 1.466941714E+00 2.773537766E-03
 1.467987180E+00 2.774018329E-03
 1.469024777E+00 2.774522174E-03
 1.470054746E+00 2.775051398E-03
 1.471076965E+00 2.775608096E-03
 1.472091556E+00 2.776194829E-03
 1.473098636E+00 2.776814159E-03
 1.474098086E+00 2.777469344E-03
 1.475089908E+00 2.778164111E-03
 1.476074457E+00 2.778901951E-03
 1.477051497E+00 2.779688220E-03
 1.478021145E+00 2.780527575E-03
 1.478983521E+00 2.781426301E-03
 1.479938626E+00 2.782391384E-03
 1.480886459E+00 2.783431672E-03
 1.481827140E+00 2.784556709E-03
 1.482760668E+00 2.785779070E-03
 1.483687043E+00 2.787112957E-03
 1.484606385E+00 2.788573969E-03
 1.485518813E+00 2.790178172E-03
 1.486424208E+00 2.791941632E-03
 1.487322688E+00 2.793883672E-03
 1.488214374E+00 2.796039684E-03
 1.489099145E+00 2.798488364E-03
 1.489977121E+00 2.801393392E-03
 1.490848422E+00 2.805031603E-03
 1.491712928E+00 2.809752477E-03
 1.492570877E+00 2.815757180E-03
 1.493422151E+00 2.822567243E-03
 1.494266987E+00 2.828075783E-03
 1.495105147E+00 2.827247372E-03
 1.495936871E+00 2.810724080E-03
 1.496762276E+00 2.764121396E-03
 1.497581124E+00 2.667315770E-03
 1.498393774E+00 2.494478831E-03
 1.499199986E+00 4.087392241E-03
 1.500000000E+00 2.885241993E-03
zone, t="TAU"
 2.780639759E-16 3.836239502E-02
 7.999999798E-04 9.033672512E-03
 1.606264967E-03 7.237952668E-03
 2.418837277E-03 6.626424380E-03
 3.237759229E-03 6.305922754E-03
 4.063073546E-03 6.147821900E-03
 4.894822836E-03 6.084319204E-03
 5.733050406E-03 6.069377530E-03
 6.577799562E-03 6.071947981E-03
 7.429112680E-03 6.073128432E-03
 8.287033997E-03 6.063580047E-03
 9.151606821E-03 6.040637381E-03
 1.002287492E-02 6.005464587E-03
 1.090088207E-02 5.960935261E-03
 1.178567298E-02 5.910311826E-03
 1.267729141E-02 5.856563337E-03
 1.357578207E-02 5.802022759E-03
 1.448118873E-02 5.748256110E-03
 1.539355703E-02 5.696092267E-03
 1.631293073E-02 5.645781755E-03
 1.723935641E-02 5.597218405E-03
 1.817287691E-02 5.550152622E-03
 1.911354065E-02 5.504345056E-03
 2.006139047E-02 5.459641572E-03
 2.101647109E-02 5.415983498E-03
 2.197883092E-02 5.373380613E-03
 2.294851467E-02 5.331874825E-03
 2.392556891E-02 5.291511305E-03
 2.491003834E-02 5.252321716E-03
 2.590196952E-02 5.214315839E-03
 2.690140903E-02 5.177484825E-03
 2.790840343E-02 5.141803995E-03
 2.892299928E-02 5.107237492E-03
 2.994524129E-02 5.073744338E-03
 3.097517975E-02 5.041278433E-03
 3.201285750E-02 5.009794142E-03
 3.305832669E-02 4.979245830E-03
 3.411163017E-02 4.949588794E-03
 3.517281637E-02 4.920780193E-03
 3.624192998E-02 4.892778583E-03
 3.731902316E-02 4.865544848E-03
 3.840414062E-02 4.839040805E-03
 3.949733078E-02 4.813232459E-03
 4.059864208E-02 4.788085818E-03
 4.170811921E-02 4.763570614E-03
 4.282581061E-02 4.739656579E-03
 4.395176470E-02 4.716316238E-03
 4.508602992E-02 4.693523049E-03
 4.622865468E-02 4.671253264E-03
 4.737968370E-02 4.649482667E-03
 4.853916913E-02 4.628190305E-03
 4.970715567E-02 4.607355222E-03
 5.088369548E-02 4.586957861E-03
 5.206883326E-02 4.566980992E-03
 5.326262116E-02 4.547406919E-03
 5.446510017E-02 4.528219346E-03
 5.567632616E-02 4.509403836E-03
 5.689634383E-02 4.490945488E-03
 5.812519789E-02 4.472829867E-03
 5.936294422E-02 4.455044866E-03
 6.060962752E-02 4.437577445E-03
 6.186529621E-02 4.420415498E-03
 6.312999874E-02 4.403547850E-03
 6.440377980E-02 4.386963323E-03
 6.568669528E-02 4.370652605E-03
 6.697878242E-02 4.354604986E-03
 6.828010082E-02 4.338812549E-03
 6.959069520E-02 4.323265981E-03
 7.091061771E-02 4.307956435E-03
 7.223990560E-02 4.292875994E-03
 7.357861102E-02 4.278017674E-03
 7.492678612E-02 4.263374023E-03
 7.628447562E-02 4.248937126E-03
 7.765173167E-02 4.234703723E-03
 7.902859896E-02 4.220658448E-03
 8.041512221E-02 4.206801299E-03
 8.181135356E-02 4.193131812E-03
 8.321733773E-02 4.179635551E-03
 8.463312685E-02 4.166310187E-03
 8.605875820E-02 4.153150134E-03
 8.749429882E-02 4.140151199E-03
 8.893977106E-02 4.127307795E-03
 9.039524198E-02 4.114615265E-03
 9.186074883E-02 4.102069419E-03
 9.333634377E-02 4.089666065E-03
 9.482206404E-02 4.077400547E-03
 9.631796926E-02 4.065269139E-03
 9.782408923E-02 4.053267650E-03
 9.934049100E-02 4.041392356E-03
 1.008672044E-01 4.029639531E-03
 1.024042815E-01 4.018005915E-03
 1.039517671E-01 4.006487783E-03
 1.055097058E-01 3.995081875E-03
 1.070781425E-01 3.983784467E-03
 1.086571217E-01 3.972593229E-03
 1.102466956E-01 3.961504437E-03
 1.118469015E-01 3.950515296E-03
 1.134577915E-01 3.939623479E-03
 1.150793955E-01 3.928825259E-03
 1.167117655E-01 3.918118309E-03
 1.183549538E-01 3.907499835E-03
 1.200089902E-01 3.896967275E-03
 1.216739267E-01 3.886518069E-03
 1.233498007E-01 3.876149887E-03
 1.250366569E-01 3.865859937E-03
 1.267345399E-01 3.855646122E-03
 1.284434944E-01 3.845505882E-03
 1.301635504E-01 3.835436888E-03
 1.318947524E-01 3.825437278E-03
 1.336371601E-01 3.815504257E-03
 1.353907883E-01 3.805635963E-03
 1.371556818E-01 3.795830067E-03
 1.389319003E-01 3.786084475E-03
 1.407194734E-01 3.776397323E-03
 1.425184160E-01 3.766766284E-03
 1.443288028E-01 3.757189726E-03
 1.461506635E-01 3.747665090E-03
 1.479840279E-01 3.738190746E-03
 1.498289257E-01 3.728764132E-03
 1.516854167E-01 3.719384084E-03
 1.535535157E-01 3.710048040E-03
 1.554332823E-01 3.700754140E-03
 1.573247313E-01 3.691500751E-03
 1.592279077E-01 3.682285780E-03
 1.611428410E-01 3.673107363E-03
 1.630695611E-01 3.663963405E-03
 1.650081277E-01 3.654852044E-03
 1.669585407E-01 3.645771416E-03
 1.689208597E-01 3.636719426E-03
 1.708951145E-01 3.627694445E-03
 1.728813201E-01 3.618694143E-03
 1.748795062E-01 3.609716892E-03
 1.768897325E-01 3.600760596E-03
 1.789119989E-01 3.591823159E-03
 1.809463501E-01 3.582902718E-03
 1.829928160E-01 3.573996946E-03
 1.850514114E-01 3.565104213E-03
 1.871221811E-01 3.556221956E-03
 1.892051548E-01 3.547348082E-03
 1.913003325E-01 3.538480727E-03
 1.934077740E-01 3.529617563E-03
 1.955274791E-01 3.520756261E-03
 1.976594776E-01 3.511894494E-03
 1.998037994E-01 3.503029933E-03
 2.019604743E-01 3.494160483E-03
 2.041295022E-01 3.485283116E-03
 2.063109279E-01 3.476395737E-03
 2.085047662E-01 3.467495320E-03
 2.107110322E-01 3.458579769E-03
 2.129297554E-01 3.449645592E-03
 2.151609361E-01 3.440690460E-03
 2.174046040E-01 3.431711346E-03
 2.196607888E-01 3.422704758E-03
 2.219294906E-01 3.413667902E-03
 2.242107242E-01 3.404597286E-03
 2.265045196E-01 3.395489650E-03
 2.288108766E-01 3.386341035E-03
 2.311298251E-01 3.377147950E-03
 2.334613651E-01 3.367906436E-03
 2.358054966E-01 3.358612536E-03
 2.381622493E-01 3.349261824E-03
 2.405316383E-01 3.339849878E-03
 2.429136485E-01 3.330371808E-03
 2.453083098E-01 3.320822492E-03
 2.477156222E-01 3.311197041E-03
 2.501356006E-01 3.301489633E-03
 2.525682449E-01 3.291694215E-03
 2.550135255E-01 3.281804966E-03
 2.574715018E-01 3.271814901E-03
 2.599421442E-01 3.261716804E-03
 2.624254823E-01 3.251503222E-03
 2.649214864E-01 3.241166007E-03
 2.674301565E-01 3.230695846E-03
 2.699515224E-01 3.220083658E-03
 2.724855542E-01 3.209318966E-03
 2.750322521E-01 3.198390827E-03
 2.775916159E-01 3.187286900E-03
 2.801636457E-01 3.175993916E-03
 2.827483416E-01 3.164497204E-03
 2.853456736E-01 3.152780002E-03
 2.879556417E-01 3.140822286E-03
 2.905782461E-01 3.128600540E-03
 2.932134569E-01 3.116085893E-03
 2.958613038E-01 3.103245515E-03
 2.985217273E-01 3.090043087E-03
 3.011947274E-01 3.076442983E-03
 3.038803041E-01 3.062418429E-03
 3.065784574E-01 3.047958482E-03
 3.092890978E-01 3.033065470E-03
 3.120122850E-01 3.017748473E-03
 3.147479594E-01 3.002021229E-03
 3.174961209E-01 2.985900966E-03
 3.202567399E-01 2.969407709E-03
 3.230297565E-01 2.952565905E-03
 3.258152306E-01 2.935399534E-03
 3.286130428E-01 2.917944454E-03
 3.314232230E-01 2.900228603E-03
 3.342457414E-01 2.882291563E-03
 3.370805681E-01 2.864174545E-03
 3.399276435E-01 2.845888259E-03
 3.427869678E-01 2.827489283E-03
 3.456584811E-01 2.809017897E-03
 3.485421836E-01 2.790515311E-03
 3.514380157E-01 2.772078617E-03
 3.543459177E-01 2.753708977E-03
 3.572659194E-01 2.735359594E-03
 3.601979017E-01 2.717291238E-03
 3.631418645E-01 2.699390054E-03
 3.660977483E-01 2.681755926E-03
 3.690654933E-01 2.664490603E-03
 3.720450699E-01 2.647537505E-03
 3.750364482E-01 2.631124808E-03
 3.780395389E-01 2.615005476E-03
 3.810542822E-01 2.599587431E-03
 3.840806186E-01 2.584808040E-03
 3.871185184E-01 2.570427256E-03
 3.901678622E-01 2.557021566E-03
 3.932286203E-01 2.544224728E-03
 3.963007331E-01 2.532260492E-03
 3.993840814E-01 2.521062503E-03
 4.024785757E-01 2.511052880E-03
 4.055841863E-01 2.501803217E-03
 4.087007940E-01 2.493476728E-03
 4.118283093E-01 2.486535581E-03
 4.149666429E-01 2.480182331E-03
 4.181156456E-01 2.475531306E-03
 4.212752879E-01 2.471702173E-03
 4.244453907E-01 2.469291678E-03
 4.276258647E-01 2.468115650E-03
 4.308166206E-01 2.468127990E-03
 4.340174794E-01 2.469729399E-03
 4.372283220E-01 2.472745953E-03
 4.404490292E-01 2.476843772E-03
 4.436794519E-01 2.482841490E-03
 4.469194710E-01 2.489889273E-03
 4.501688778E-01 2.498898190E-03
 4.534275532E-01 2.509233076E-03
 4.566953778E-01 2.521042712E-03
 4.599721134E-01 2.534761559E-03
 4.632576406E-01 2.549926285E-03
 4.665518105E-01 2.567026764E-03
 4.698544145E-01 2.584537026E-03
 4.731652737E-01 2.606085734E-03
 4.764842689E-01 2.627220238E-03
 4.798111618E-01 2.650562208E-03
 4.831458032E-01 2.676898614E-03
 4.864880145E-01 2.703033155E-03
 4.898376465E-01 2.732887398E-03
 4.931944907E-01 2.763006138E-03
 4.965583980E-01 2.795642009E-03
 4.999292195E-01 2.829212463E-03
 5.033067465E-01 2.865765709E-03
 5.066908002E-01 2.903607208E-03
 5.100812912E-01 2.943078754E-03
 5.134780407E-01 2.984690713E-03
 5.168808699E-01 3.026970197E-03
 5.202897191E-01 3.072391497E-03
 5.237043500E-01 3.118593944E-03
 5.271247625E-01 3.168736352E-03
 5.305507779E-01 3.216894343E-03
 5.339823365E-01 3.268714994E-03
 5.374191999E-01 3.323055105E-03
 5.408614874E-01 3.378981957E-03
 5.443089604E-01 3.433129517E-03
 5.477616787E-01 3.494669683E-03
 5.512195230E-01 3.554359777E-03
 5.546824932E-01 3.612378146E-03
 5.581504703E-01 3.680793568E-03
 5.616235137E-01 3.741829889E-03