variables="x","cp"
zone, t="CFL3D"
 2.780639759E-16 6.330992281E-02
 7.999999798E-04 3.564443067E-02
 1.606264967E-03 2.470399626E-02
 2.418837277E-03 2.690042742E-02
 3.237759229E-03 2.642061003E-02
 4.063073546E-03 2.686168440E-02
 4.894822836E-03 2.704943903E-02
 5.733050406E-03 2.723719366E-02
 6.577799562E-03 2.733554132E-02
 7.429112680E-03 2.738918550E-02
 8.287033997E-03 2.737726457E-02
 9.151606821E-03 2.728785761E-02
 1.002287492E-02 2.710904367E-02
 1.090088207E-02 2.684976347E-02
 1.178567298E-02 2.658452280E-02
 1.267729141E-02 2.645935304E-02
 1.357578207E-02 2.664710768E-02
 1.448118873E-02 2.724911459E-02
 1.539355703E-02 2.823855169E-02
 1.631293073E-02 2.944852598E-02
 1.723935641E-02 3.066446073E-02
 1.817287691E-02 3.171350434E-02
 1.911354065E-02 3.251518682E-02
 2.006139047E-02 3.306951001E-02
 2.101647109E-02 3.341223672E-02
 2.197883092E-02 3.359999135E-02
 2.294851467E-02 3.367449716E-02
 2.392556891E-02 3.366853669E-02
 2.491003834E-02 3.361191228E-02
 2.590196952E-02 3.352548555E-02
 2.690140903E-02 3.342117742E-02
 2.790840343E-02 3.331090882E-02
 2.892299928E-02 3.320660070E-02
 2.994524129E-02 3.310527280E-02
 3.097517975E-02 3.301288560E-02
 3.201285750E-02 3.293241933E-02
 3.305832669E-02 3.286387399E-02
 3.411163017E-02 3.280128911E-02
 3.517281637E-02 3.275360540E-02
 3.624192998E-02 3.271188214E-02
 3.731902316E-02 3.267909959E-02
 3.840414062E-02 3.265525773E-02
 3.949733078E-02 3.264035657E-02
 4.059864208E-02 3.263141587E-02
 4.170811921E-02 3.263141587E-02
 4.282581061E-02 3.263737634E-02
 4.395176470E-02 3.264929727E-02
 4.508602992E-02 3.266419843E-02
 4.622865468E-02 3.268804029E-02
 4.737968370E-02 3.271486238E-02
 4.853916913E-02 3.274764493E-02
 4.970715567E-02 3.278340772E-02
 5.088369548E-02 3.282513097E-02
 5.206883326E-02 3.287281469E-02
 5.326262116E-02 3.292049840E-02
 5.446510017E-02 3.297414258E-02
 5.567632616E-02 3.303076699E-02
 5.689634383E-02 3.309335187E-02
 5.812519789E-02 3.315593675E-02
 5.936294422E-02 3.322448209E-02
 6.060962752E-02 3.329302743E-02
 6.186529621E-02 3.336753324E-02
 6.312999874E-02 3.344501927E-02
 6.440377980E-02 3.352548555E-02
 6.568669528E-02 3.360893205E-02
 6.697878242E-02 3.369237855E-02
 6.828010082E-02 3.378178552E-02
 6.959069520E-02 3.387417272E-02
 7.091061771E-02 3.396954015E-02
 7.223990560E-02 3.406490758E-02
 7.357861102E-02 3.416623548E-02
 7.492678612E-02 3.426756337E-02
 7.628447562E-02 3.437485173E-02
 7.765173167E-02 3.448214009E-02
 7.902859896E-02 3.459240869E-02
 8.041512221E-02 3.470565751E-02
 8.181135356E-02 3.482188657E-02
 8.321733773E-02 3.494109586E-02
 8.463312685E-02 3.506328538E-02
 8.605875820E-02 3.518845513E-02
 8.749429882E-02 3.531362489E-02
 8.893977106E-02 3.544475511E-02
 9.039524198E-02 3.557886556E-02
 9.186074883E-02 3.571297601E-02
 9.333634377E-02 3.585304692E-02
 9.482206404E-02 3.599311784E-02
 9.631796926E-02 3.613914922E-02
 9.782408923E-02 3.628518060E-02
 9.934049100E-02 3.643419221E-02
 1.008672044E-01 3.658916429E-02
 1.024042815E-01 3.674413636E-02
 1.039517671E-01 3.690506890E-02
 1.055097058E-01 3.706600145E-02
 1.070781425E-01 3.723289445E-02
 1.086571217E-01 3.739978746E-02
 1.102466956E-01 3.757264093E-02
 1.118469015E-01 3.774847463E-02
 1.134577915E-01 3.792728856E-02
 1.150793955E-01 3.810908273E-02
 1.167117655E-01 3.829385713E-02
 1.183549538E-01 3.848459199E-02
 1.200089902E-01 3.867532685E-02
 1.216739267E-01 3.887202218E-02
 1.233498007E-01 3.907467797E-02
 1.250366569E-01 3.927733377E-02
 1.267345399E-01 3.948595002E-02
 1.284434944E-01 3.969754651E-02
 1.301635504E-01 3.991212323E-02
 1.318947524E-01 4.013266042E-02
 1.336371601E-01 4.035617784E-02
 1.353907883E-01 4.058565572E-02
 1.371556818E-01 4.081811383E-02
 1.389319003E-01 4.105355218E-02
 1.407194734E-01 4.129495099E-02
 1.425184160E-01 4.154231027E-02
 1.443288028E-01 4.179264978E-02
 1.461506635E-01 4.204894975E-02
 1.479840279E-01 4.231121019E-02
 1.498289257E-01 4.257645085E-02
 1.516854167E-01 4.284765199E-02
 1.535535157E-01 4.312183335E-02
 1.554332823E-01 4.340495542E-02
 1.573247313E-01 4.369105771E-02
 1.592279077E-01 4.398312047E-02
 1.611428410E-01 4.428114370E-02
 1.630695611E-01 4.458810762E-02
 1.650081277E-01 4.489805177E-02
 1.669585407E-01 4.521395639E-02
 1.689208597E-01 4.553582147E-02
 1.708951145E-01 4.586662725E-02
 1.728813201E-01 4.620339349E-02
 1.748795062E-01 4.654612020E-02
 1.768897325E-01 4.689480737E-02
 1.789119989E-01 4.725243524E-02
 1.809463501E-01 4.761900380E-02
 1.829928160E-01 4.798855260E-02
 1.850514114E-01 4.837002233E-02
 1.871221811E-01 4.875745252E-02
 1.892051548E-01 4.915382341E-02
 1.913003325E-01 4.955913499E-02
 1.934077740E-01 4.997040704E-02
 1.955274791E-01 5.039360002E-02
 1.976594776E-01 5.082573369E-02
 1.998037994E-01 5.126680806E-02
 2.019604743E-01 5.194332078E-02
 2.041295022E-01 5.217875913E-02
 2.063109279E-01 5.264963582E-02
 2.085047662E-01 5.312945321E-02
 2.107110322E-01 5.362119153E-02
 2.129297554E-01 5.412485078E-02
 2.151609361E-01 5.464043096E-02
 2.174046040E-01 5.516793206E-02
 2.196607888E-01 5.570735410E-02
 2.219294906E-01 5.626167729E-02
 2.242107242E-01 5.682494119E-02
 2.265045196E-01 5.740608647E-02
 2.288108766E-01 5.799915269E-02
 2.311298251E-01 5.860712007E-02
 2.334613651E-01 5.922998860E-02
 2.358054966E-01 5.986775830E-02
 2.381622493E-01 6.052340940E-02
 2.405316383E-01 6.119396165E-02
 2.429136485E-01 6.188239530E-02
 2.453083098E-01 6.258870661E-02
 2.477156222E-01 6.331588328E-02
 2.501356006E-01 6.406094134E-02
 2.525682449E-01 6.482686102E-02
 2.550135255E-01 6.561066210E-02
 2.574715018E-01 6.642128527E-02
 2.599421442E-01 6.724978983E-02
 2.624254823E-01 6.810511649E-02
 2.649214864E-01 6.898428500E-02
 2.674301565E-01 6.989027560E-02
 2.699515224E-01 7.082308829E-02
 2.724855542E-01 7.178570330E-02
 2.750322521E-01 7.277514040E-02
 2.775916159E-01 7.379736006E-02
 2.801636457E-01 7.485236228E-02
 2.827483416E-01 7.594312727E-02
 2.853456736E-01 7.706965506E-02
 2.879556417E-01 7.823790610E-02
 2.905782461E-01 7.944490016E-02
 2.932134569E-01 8.069361746E-02
 2.958613038E-01 8.199299872E-02
 2.985217273E-01 8.334006369E-02
 3.011947274E-01 8.474375308E-02
 3.038803041E-01 8.620406687E-02
 3.065784574E-01 8.772994578E-02
 3.092890978E-01 8.932138979E-02
 3.120122850E-01 9.098435938E-02
 3.147479594E-01 9.271885455E-02
 3.174961209E-01 9.452487528E-02
 3.202567399E-01 9.640540183E-02
 3.230297565E-01 9.835745394E-02
 3.258152306E-01 1.003840119E-01
 3.286130428E-01 1.024850756E-01
 3.314232230E-01 1.046546847E-01
 3.342457414E-01 1.068958193E-01
 3.370805681E-01 1.092025191E-01
 3.399276435E-01 1.115747839E-01
 3.427869678E-01 1.140066534E-01
 3.456584811E-01 1.164981276E-01
 3.485421836E-01 1.190462261E-01
 3.514380157E-01 1.216449887E-01
 3.543459177E-01 1.242824942E-01
 3.572659194E-01 1.269617230E-01
 3.601979017E-01 1.296826750E-01
 3.631418645E-01 1.324334294E-01
 3.660977483E-01 1.351961046E-01
 3.690654933E-01 1.379766613E-01
 3.720450699E-01 1.407900006E-01
 3.750364482E-01 1.435884386E-01
 3.780395389E-01 1.463719755E-01
 3.810542822E-01 1.491793543E-01
 3.840806186E-01 1.519450098E-01
 3.871185184E-01 1.546778828E-01
 3.901678622E-01 1.574077755E-01
 3.932286203E-01 1.600572020E-01
 3.963007331E-01 1.626976877E-01
 3.993840814E-01 1.652577072E-01
 4.024785757E-01 1.677432209E-01
 4.055841863E-01 1.701780707E-01
 4.087007940E-01 1.725086123E-01
 4.118283093E-01 1.747646481E-01
 4.149666429E-01 1.769074351E-01
 4.181156456E-01 1.789488941E-01
 4.212752879E-01 1.808711439E-01
 4.244453907E-01 1.826622635E-01
 4.276258647E-01 1.843311936E-01
 4.308166206E-01 1.858332306E-01
 4.340174794E-01 1.872130781E-01
 4.372283220E-01 1.884021908E-01
 4.404490292E-01 1.894393116E-01
 4.436794519E-01 1.903065592E-01
 4.469194710E-01 1.909353882E-01
 4.501688778E-01 1.914420277E-01
 4.534275532E-01 1.916804463E-01
 4.566953778E-01 1.917340904E-01
 4.599721134E-01 1.915850788E-01
 4.632576406E-01 1.911350638E-01
 4.665518105E-01 1.905211359E-01
 4.698544145E-01 1.896419674E-01
 4.731652737E-01 1.884468943E-01
 4.764842689E-01 1.870610863E-01
 4.798111618E-01 1.853861958E-01
 4.831458032E-01 1.833834797E-01
 4.864880145E-01 1.811185032E-01
 4.898376465E-01 1.785912663E-01
 4.931944907E-01 1.757123619E-01
 4.965583980E-01 1.724996716E-01
 4.999292195E-01 1.690068394E-01
 5.033067465E-01 1.651921421E-01
 5.066908002E-01 1.610019356E-01
 5.100812912E-01 1.564600617E-01
 5.134780407E-01 1.515844017E-01
 5.168808699E-01 1.463749558E-01
 5.202897191E-01 1.407691389E-01
 5.237043500E-01 1.347609907E-01
 5.271247625E-01 1.284041554E-01
 5.305507779E-01 1.216539294E-01
 5.339823365E-01 1.145371348E-01
 5.374191999E-01 1.069941670E-01
 5.408614874E-01 9.902800620E-02
 5.443089604E-01 9.067739546E-02
 5.477616787E-01 8.191253245E-02
 5.512195230E-01 7.273639739E-02
 5.546824932E-01 6.314899027E-02
 5.581504703E-01 5.312349275E-02
 5.616235137E-01 4.265989736E-02
 5.651015639E-01 3.178502992E-02
 5.685847402E-01 2.048696764E-02
 5.720728636E-01 8.762734011E-03
 5.755661130E-01 -3.384692362E-03
 5.790644884E-01 -1.595531218E-02
 5.825679898E-01 -2.894614451E-02
 5.860767365E-01 -4.236016795E-02
 5.895906687E-01 -5.618248507E-02
 5.931099653E-01 -7.040713727E-02
 5.966346264E-01 -8.502815664E-02
 6.001648307E-01 -1.000336260E-01
 6.037005186E-01 -1.154146045E-01
 6.072419286E-01 -1.311621517E-01
 6.107890606E-01 -1.472583860E-01
 6.143419743E-01 -1.636884063E-01
 6.179008484E-01 -1.804373115E-01
 6.214657426E-01 -1.974782795E-01
 6.250367761E-01 -2.147964090E-01
 6.286140084E-01 -2.323648781E-01
 6.321974993E-01 -2.501568496E-01
 6.357874274E-01 -2.681425512E-01
 6.393837333E-01 -2.862891853E-01
 6.429865360E-01 -3.045669496E-01
 6.465959549E-01 -3.229371011E-01
 6.502119303E-01 -3.413608968E-01
 6.538345814E-01 -3.597966135E-01
 6.574639082E-01 -3.781965673E-01
 6.610997915E-01 -3.965190351E-01
 6.647424102E-01 -4.147133529E-01
 6.683915854E-01 -4.327258766E-01
 6.720473170E-01 -4.505029619E-01
 6.757094860E-01 -4.679939449E-01
 6.793780923E-01 -4.851392210E-01
 6.830529571E-01 -5.018792152E-01
 6.867339015E-01 -5.181572437E-01
 6.904208660E-01 -5.339107513E-01
 6.941135526E-01 -5.490771532E-01
 6.978118420E-01 -5.636296272E-01
 7.015154362E-01 -5.774132013E-01
 7.052240968E-01 -5.903831720E-01
 7.089375854E-01 -6.025723219E-01
 7.126555443E-01 -6.138733625E-01
 7.163776159E-01 -6.242475510E-01
 7.201035023E-01 -6.336352825E-01
 7.238328457E-01 -6.420156956E-01
 7.275652289E-01 -6.493142843E-01
 7.313002348E-01 -6.554118395E-01
 7.350375056E-01 -6.603649855E-01
 7.387765050E-01 -6.641856432E-01
 7.425169349E-01 -6.668171883E-01
 7.462582588E-01 -6.682387590E-01
 7.500000000E-01 -6.686381102E-01
 7.537417412E-01 -6.674877405E-01
 7.574830651E-01 -6.651601791E-01
 7.612234950E-01 -6.617269516E-01
 7.649624944E-01 -6.571105719E-01
 7.686997652E-01 -6.513438225E-01
 7.724347711E-01 -6.444833279E-01
 7.761671543E-01 -6.365231276E-01
 7.798964977E-01 -6.274393797E-01
 7.836223841E-01 -6.173602343E-01
 7.873444557E-01 -6.063691378E-01
 7.910624146E-01 -5.944869518E-01
 7.947759032E-01 -5.817732811E-01
 7.984845638E-01 -5.682758093E-01
 8.021881580E-01 -5.540958643E-01
 8.058864474E-01 -5.392215252E-01
 8.095791340E-01 -5.237153769E-01
 8.132660985E-01 -5.077264309E-01
 8.169470429E-01 -4.912784994E-01
 8.206219077E-01 -4.744372070E-01
 8.242905140E-01 -4.572651088E-01
 8.279526830E-01 -4.398277700E-01
 8.316084146E-01 -4.221758544E-01
 8.352575898E-01 -4.043749273E-01
 8.389002085E-01 -3.864756525E-01
 8.425360918E-01 -3.685316741E-01
 8.461654186E-01 -3.505966365E-01
 8.497880697E-01 -3.327152431E-01
 8.534040451E-01 -3.149351776E-01
 8.570134640E-01 -2.972981632E-01
 8.606162667E-01 -2.798429430E-01
 8.642125726E-01 -2.626052797E-01
 8.678025007E-01 -2.456209511E-01
 8.713859916E-01 -2.289137691E-01
 8.749632239E-01 -2.125135511E-01
 8.785342574E-01 -1.964441389E-01
 8.820991516E-01 -1.807263941E-01
 8.856580257E-01 -1.653781980E-01
 8.892109394E-01 -1.504144520E-01
 8.927580714E-01 -1.358440965E-01
 8.962994814E-01 -1.216820329E-01
 8.998351693E-01 -1.079312414E-01
 9.033653736E-01 -9.459470212E-02
 9.068900347E-01 -8.168135583E-02
 9.104093313E-01 -6.918524206E-02
 9.139232635E-01 -5.711231753E-02
 9.174320102E-01 -4.545364901E-02
 9.209355116E-01 -3.420625255E-02
 9.244338870E-01 -2.337012999E-02
 9.279271364E-01 -1.293633692E-02
 9.314152598E-01 -2.898914507E-03
 9.348984361E-01 6.754057948E-03
 9.383764863E-01 1.602854021E-02
 9.418495297E-01 2.493049391E-02
 9.453175068E-01 3.348078206E-02
 9.487804770E-01 4.167344049E-02
 9.522383213E-01 4.951145127E-02
 9.556910396E-01 5.702163652E-02
 9.591385126E-01 6.420697272E-02
 9.625808001E-01 7.107044756E-02
 9.660176635E-01 7.764185965E-02
 9.694492221E-01 8.390332758E-02
 9.728752375E-01 8.985485137E-02
 9.762956500E-01 9.553517401E-02
 9.797102809E-01 1.009264141E-01
 9.831191301E-01 1.060643345E-01
 9.865219593E-01 1.109310538E-01
 9.899187088E-01 1.155146509E-01
 9.933091998E-01 1.198538691E-01
 9.966932535E-01 1.239546686E-01
 1.000070810E+00 1.278140694E-01
 1.003441572E+00 1.314112097E-01
 1.006805539E+00 1.347699314E-01
 1.010162354E+00 1.379259974E-01
 1.013512015E+00 1.408466250E-01
 1.016854167E+00 1.435169131E-01
 1.020188808E+00 1.459815651E-01
 1.023515701E+00 1.482525021E-01
 1.026834726E+00 1.502850205E-01
 1.030145645E+00 1.520940214E-01
 1.033448219E+00 1.537450701E-01
 1.036742330E+00 1.551636606E-01
 1.040027857E+00 1.563646942E-01
 1.043304682E+00 1.574196965E-01
 1.046572447E+00 1.582482010E-01
 1.049831152E+00 1.588949114E-01
 1.053080559E+00 1.593836695E-01
 1.056320548E+00 1.596518904E-01
 1.059551001E+00 1.597949415E-01
 1.062771678E+00 1.597383171E-01
 1.065982580E+00 1.595267206E-01
 1.069183350E+00 1.591690928E-01
 1.072374105E+00 1.586386114E-01
 1.075554609E+00 1.579799801E-01
 1.078724742E+00 1.571693569E-01
 1.081884384E+00 1.562305838E-01
 1.085033417E+00 1.551606804E-01
 1.088171721E+00 1.539715677E-01
 1.091299176E+00 1.526692063E-01
 1.094415784E+00 1.512476355E-01
 1.097521424E+00 1.497426182E-01
 1.100615978E+00 1.481243521E-01
 1.103699327E+00 1.464345604E-01
 1.106771350E+00 1.446613222E-01
 1.109832168E+00 1.427956969E-01
 1.112881541E+00 1.408943087E-01
 1.115919352E+00 1.389064938E-01
 1.118945718E+00 1.368858963E-01
 1.121960521E+00 1.348205954E-01
 1.124963522E+00 1.326986700E-01
 1.127954960E+00 1.305707842E-01
 1.130934477E+00 1.284071356E-01
 1.133902311E+00 1.262166649E-01
 1.136858106E+00 1.240291744E-01
 1.139802098E+00 1.218387038E-01
 1.142734051E+00 1.196392924E-01
 1.145654082E+00 1.174488217E-01
 1.148561954E+00 1.152732521E-01
 1.151457787E+00 1.131185442E-01
 1.154341459E+00 1.109817177E-01
 1.157212973E+00 1.088717133E-01
 1.160072327E+00 1.067944914E-01
 1.162919402E+00 1.047500521E-01
 1.165754199E+00 1.027473360E-01
 1.168576717E+00 1.007863432E-01
 1.171386957E+00 9.886707366E-02
 1.174184799E+00 9.699548781E-02
 1.176970243E+00 9.517456591E-02
 1.179743290E+00 9.340430796E-02
 1.182503939E+00 9.168471396E-02
 1.185252070E+00 9.001578391E-02
 1.187987685E+00 8.840049803E-02
 1.190710902E+00 8.683885634E-02
 1.193421602E+00 8.533085883E-02
 1.196119666E+00 8.387054503E-02
 1.198805213E+00 8.246089518E-02
 1.201478243E+00 8.109892905E-02
 1.204138756E+00 7.978166640E-02
 1.206786513E+00 7.850314677E-02
 1.209421754E+00 7.726635039E-02
 1.212044358E+00 7.606531680E-02
 1.214654326E+00 7.489706576E-02
 1.217251658E+00 7.376457751E-02
 1.219836354E+00 7.266487181E-02
 1.222408414E+00 7.159496844E-02
 1.224967718E+00 7.055486739E-02
 1.227514505E+00 6.954158843E-02
 1.230048537E+00 6.855513155E-02
 1.232569814E+00 6.759549677E-02
 1.235078573E+00 6.665970385E-02
 1.237574458E+00 6.575073302E-02
 1.240057826E+00 6.486262381E-02
 1.242528439E+00 6.399537623E-02
 1.244986415E+00 6.315197051E-02
 1.247431755E+00 6.232644990E-02
 1.249864459E+00 6.152178720E-02
 1.252284408E+00 6.073798612E-02
 1.254691720E+00 5.997206643E-02
 1.257086396E+00 5.922104791E-02
 1.259468317E+00 5.849089101E-02
 1.261837721E+00 5.777563527E-02
 1.264194489E+00 5.707528070E-02
 1.266538620E+00 5.639280751E-02
 1.268870234E+00 5.572523549E-02
 1.271189094E+00 5.507256463E-02
 1.273495436E+00 5.443181470E-02
 1.275789261E+00 5.380596593E-02
 1.278070450E+00 5.319501832E-02
 1.280339241E+00 5.259599164E-02
 1.282595396E+00 5.200888589E-02
 1.284839034E+00 5.143370107E-02
 1.287070274E+00 5.087043718E-02
 1.289288998E+00 5.031611398E-02
 1.291495204E+00 4.977669194E-02
 1.293689013E+00 4.924621060E-02
 1.295870543E+00 4.872765020E-02
 1.298039556E+00 4.796471074E-02
 1.300196171E+00 4.771735147E-02
 1.302340508E+00 4.722561315E-02
 1.304472566E+00 4.674579576E-02
 1.306592226E+00 4.627193883E-02
 1.308699608E+00 4.581000283E-02
 1.310794830E+00 4.535402730E-02
 1.312877774E+00 4.490699247E-02
 1.314948559E+00 4.446889833E-02
 1.317007184E+00 4.403974488E-02
 1.319053650E+00 4.361655191E-02
 1.321087956E+00 4.320229962E-02
 1.323110223E+00 4.279400781E-02
 1.325120449E+00 4.239167646E-02
 1.327118635E+00 4.199828580E-02
 1.329104900E+00 4.161085561E-02
 1.331079125E+00 4.122938588E-02
 1.333041430E+00 4.085387662E-02
 1.334991932E+00 4.048432782E-02
 1.336930394E+00 4.012371972E-02
 1.338857174E+00 3.976609185E-02
 1.340772152E+00 3.941442445E-02
 1.342675328E+00 3.907169774E-02
 1.344566703E+00 3.873195127E-02
 1.346446514E+00 3.839518502E-02
 1.348314643E+00 3.806735948E-02
 1.350171089E+00 3.774251416E-02
 1.352015972E+00 3.742362931E-02
 1.353849292E+00 3.711070493E-02
 1.355671167E+00 3.680076078E-02
 1.357481599E+00 3.649379686E-02
 1.359280586E+00 3.619577363E-02
 1.361068130E+00 3.589775041E-02
 1.362844348E+00 3.560568765E-02
 1.364609241E+00 3.531958535E-02
 1.366362810E+00 3.503646329E-02
 1.368105292E+00 3.475632146E-02
 1.369836450E+00 3.447915986E-02
 1.371556520E+00 3.420795873E-02
 1.373265505E+00 3.393973783E-02
 1.374963284E+00 3.367449716E-02
 1.376650214E+00 3.341521695E-02
 1.378326058E+00 3.315593675E-02
 1.379991055E+00 3.290261701E-02
 1.381645083E+00 3.265227750E-02
 1.383288264E+00 3.240491822E-02
 1.384920597E+00 3.216053918E-02
 1.386542201E+00 3.191914037E-02
 1.388153076E+00 3.168072179E-02
 1.389753342E+00 3.144230321E-02
 1.391342878E+00 3.120984323E-02
 1.392921805E+00 3.098036535E-02
 1.394490242E+00 3.075386770E-02
 1.396048188E+00 3.053035028E-02
 1.397595763E+00 3.030683286E-02
 1.399132848E+00 3.008927591E-02
 1.400659561E+00 2.987171896E-02
 1.402175903E+00 2.965714224E-02
 1.403681993E+00 2.944554575E-02
 1.405177951E+00 2.923394926E-02
 1.406663656E+00 2.902533300E-02
 1.408139229E+00 2.881969698E-02
 1.409604788E+00 2.861704119E-02
 1.411060214E+00 2.841736563E-02
 1.412505746E+00 2.821769007E-02
 1.413941264E+00 2.802099474E-02
 1.415366888E+00 2.782429941E-02
 1.416782618E+00 2.763058431E-02
 1.418188691E+00 2.743984945E-02
 1.419584870E+00 2.724911459E-02
 1.420971394E+00 2.706135996E-02
 1.422348261E+00 2.687360533E-02
 1.423715472E+00 2.668883093E-02
 1.425073266E+00 2.650405653E-02
 1.426421404E+00 2.632226236E-02
 1.427760124E+00 2.614344843E-02
 1.429089427E+00 2.596463449E-02
 1.430409312E+00 2.578582056E-02
 1.431719899E+00 2.560998686E-02
 1.433021188E+00 2.543415315E-02
 1.434313297E+00 2.526129968E-02
 1.435596228E+00 2.508844621E-02
 1.436869979E+00 2.491559274E-02
 1.438134670E+00 2.474571951E-02
 1.439390421E+00 2.457584627E-02
 1.440637112E+00 2.440895326E-02
 1.441874743E+00 2.423908003E-02
 1.443103671E+00 2.407218702E-02
 1.444323659E+00 2.390827425E-02
 1.445534945E+00 2.374138124E-02
 1.446737409E+00 2.357746847E-02
 1.447931170E+00 2.341355570E-02
 1.449116349E+00 2.325262316E-02
 1.450292826E+00 2.308871038E-02
 1.451460838E+00 2.292777784E-02
 1.452620268E+00 2.276684530E-02
 1.453771353E+00 2.260591276E-02
 1.454913974E+00 2.244498022E-02
 1.456048250E+00 2.228404768E-02
 1.457174182E+00 2.212311514E-02
 1.458291888E+00 2.196218260E-02
 1.459401369E+00 2.180125006E-02
 1.460502625E+00 2.164329775E-02
 1.461595893E+00 2.148236521E-02
 1.462680936E+00 2.132143266E-02
 1.463758111E+00 2.116050012E-02
 1.464827180E+00 2.099956758E-02
 1.465888381E+00 2.083863504E-02
 1.466941714E+00 2.067472227E-02
 1.467987180E+00 2.051080950E-02
 1.469024777E+00 2.034689672E-02
 1.470054746E+00 2.018298395E-02
 1.471076965E+00 2.001609094E-02
 1.472091556E+00 1.984919794E-02
 1.473098636E+00 1.967932470E-02
 1.474098086E+00 1.950945146E-02
 1.475089908E+00 1.933659799E-02
 1.476074457E+00 1.916076429E-02
 1.477051497E+00 1.898493059E-02
 1.478021145E+00 1.880313642E-02
 1.478983521E+00 1.862134226E-02
 1.479938626E+00 1.843358763E-02
 1.480886459E+00 1.824285276E-02
 1.481827140E+00 1.804615743E-02
 1.482760668E+00 1.784648187E-02
 1.483687043E+00 1.764084585E-02
 1.484606385E+00 1.742626913E-02
 1.485518813E+00 1.720573194E-02
 1.486424208E+00 1.697625406E-02
 1.487322688E+00 1.673485525E-02
 1.488214374E+00 1.648153551E-02
 1.489099145E+00 1.621331461E-02
 1.489977121E+00 1.593019255E-02
 1.490848422E+00 1.562918909E-02
 1.491712928E+00 1.531030424E-02
 1.492570877E+00 1.497353800E-02
 1.493422151E+00 1.459802873E-02
 1.494266987E+00 1.414801367E-02
 1.495105147E+00 1.355494745E-02
 1.495936871E+00 1.273538359E-02
 1.496762276E+00 1.167144068E-02
 1.497581124E+00 1.047338732E-02
 1.498393774E+00 9.552495554E-03
 1.499199986E+00 8.679287508E-03
 1.500000000E+00 1.002337225E-02
zone, t="TAU"
 2.780639759E-16 4.277160391E-02
 7.999999798E-04 2.798125707E-02
 1.606264967E-03 2.741405554E-02
 2.418837277E-03 2.648963593E-02
 3.237759229E-03 2.665018104E-02
 4.063073546E-03 2.740685828E-02
 4.894822836E-03 2.827852033E-02
 5.733050406E-03 2.907194756E-02
 6.577799562E-03 2.971808426E-02
 7.429112680E-03 3.019036539E-02
 8.287033997E-03 3.051092476E-02
 9.151606821E-03 3.070809506E-02
 1.002287492E-02 3.081577830E-02
 1.090088207E-02 3.086302429E-02
 1.178567298E-02 3.087632917E-02
 1.267729141E-02 3.087544627E-02
 1.357578207E-02 3.087213077E-02
 1.448118873E-02 3.087111562E-02
 1.539355703E-02 3.087364323E-02
 1.631293073E-02 3.087890893E-02
 1.723935641E-02 3.088569641E-02
 1.817287691E-02 3.089300729E-02
 1.911354065E-02 3.090048395E-02
 2.006139047E-02 3.090825677E-02
 2.101647109E-02 3.091681004E-02
 2.197883092E-02 3.092671745E-02
 2.294851467E-02 3.093854710E-02
 2.392556891E-02 3.095275909E-02
 2.491003834E-02 3.096962906E-02
 2.590196952E-02 3.098933212E-02
 2.690140903E-02 3.101193905E-02
 2.790840343E-02 3.103745356E-02
 2.892299928E-02 3.106583469E-02
 2.994524129E-02 3.109700605E-02
 3.097517975E-02 3.113090619E-02
 3.201285750E-02 3.116745502E-02
 3.305832669E-02 3.120656870E-02
 3.411163017E-02 3.124818578E-02
 3.517281637E-02 3.129223362E-02
 3.624192998E-02 3.133862838E-02
 3.731902316E-02 3.138731420E-02
 3.840414062E-02 3.143826127E-02
 3.949733078E-02 3.149142861E-02
 4.059864208E-02 3.154676408E-02
 4.170811921E-02 3.160421923E-02
 4.282581061E-02 3.166376427E-02
 4.395176470E-02 3.172538057E-02
 4.508602992E-02 3.178904578E-02
 4.622865468E-02 3.185473755E-02
 4.737968370E-02 3.192244098E-02
 4.853916913E-02 3.199214488E-02
 4.970715567E-02 3.206383809E-02
 5.088369548E-02 3.213751689E-02
 5.206883326E-02 3.221317381E-02
 5.326262116E-02 3.229080886E-02
 5.446510017E-02 3.237042204E-02
 5.567632616E-02 3.245201334E-02
 5.689634383E-02 3.253559023E-02
 5.812519789E-02 3.262115642E-02
 5.936294422E-02 3.270871565E-02
 6.060962752E-02 3.279826045E-02
 6.186529621E-02 3.288981318E-02
 6.312999874E-02 3.298339248E-02
 6.440377980E-02 3.307900950E-02
 6.568669528E-02 3.317667544E-02
 6.697878242E-02 3.327642009E-02
 6.828010082E-02 3.337823972E-02
 6.959069520E-02 3.348215297E-02
 7.091061771E-02 3.358818218E-02
 7.223990560E-02 3.369635716E-02
 7.357861102E-02 3.380670771E-02
 7.492678612E-02 3.391924500E-02
 7.628447562E-02 3.403397650E-02
 7.765173167E-02 3.415094689E-02
 7.902859896E-02 3.427019343E-02
 8.041512221E-02 3.439173475E-02
 8.181135356E-02 3.451558203E-02
 8.321733773E-02 3.464178368E-02
 8.463312685E-02 3.477038443E-02
 8.605875820E-02 3.490139917E-02
 8.749429882E-02 3.503485769E-02
 8.893977106E-02 3.517080471E-02
 9.039524198E-02 3.530928865E-02
 9.186074883E-02 3.545032814E-02
 9.333634377E-02 3.559397161E-02
 9.482206404E-02 3.574026376E-02
 9.631796926E-02 3.588923812E-02
 9.782408923E-02 3.604093567E-02
 9.934049100E-02 3.619541973E-02
 1.008672044E-01 3.635271639E-02
 1.024042815E-01 3.651288152E-02
 1.039517671E-01 3.667596355E-02
 1.055097058E-01 3.684201464E-02
 1.070781425E-01 3.701108322E-02
 1.086571217E-01 3.718323261E-02
 1.102466956E-01 3.735850379E-02
 1.118469015E-01 3.753696382E-02
 1.134577915E-01 3.771867603E-02
 1.150793955E-01 3.790368140E-02
 1.167117655E-01 3.809206188E-02
 1.183549538E-01 3.828387335E-02
 1.200089902E-01 3.847918659E-02
 1.216739267E-01 3.867806494E-02
 1.233498007E-01 3.888057917E-02
 1.250366569E-01 3.908680379E-02
 1.267345399E-01 3.929681703E-02
 1.284434944E-01 3.951068968E-02
 1.301635504E-01 3.972850367E-02
 1.318947524E-01 3.995033726E-02
 1.336371601E-01 4.017627612E-02
 1.353907883E-01 4.040640593E-02
 1.371556818E-01 4.064082354E-02
 1.389319003E-01 4.087961465E-02
 1.407194734E-01 4.112287238E-02
 1.425184160E-01 4.137069359E-02
 1.443288028E-01 4.162318259E-02
 1.461506635E-01 4.188044742E-02
 1.479840279E-01 4.214258865E-02
 1.498289257E-01 4.240971804E-02
 1.516854167E-01 4.268195480E-02
 1.535535157E-01 4.295941070E-02
 1.554332823E-01 4.324221611E-02
 1.573247313E-01 4.353048652E-02
 1.592279077E-01 4.382435977E-02
 1.611428410E-01 4.412396252E-02
 1.630695611E-01 4.442944005E-02
 1.650081277E-01 4.474093392E-02
 1.669585407E-01 4.505858943E-02
 1.689208597E-01 4.538256675E-02
 1.708951145E-01 4.571301863E-02
 1.728813201E-01 4.605011269E-02
 1.748795062E-01 4.639401659E-02
 1.768897325E-01 4.674490541E-02
 1.789119989E-01 4.710296914E-02
 1.809463501E-01 4.746838659E-02
 1.829928160E-01 4.784136266E-02
 1.850514114E-01 4.822209105E-02
 1.871221811E-01 4.861078784E-02
 1.892051548E-01 4.900767282E-02
 1.913003325E-01 4.941296950E-02
 1.934077740E-01 4.982691258E-02
 1.955274791E-01 5.024974793E-02
 1.976594776E-01 5.068172887E-02
 1.998037994E-01 5.112312362E-02
 2.019604743E-01 5.157420039E-02
 2.041295022E-01 5.203525349E-02
 2.063109279E-01 5.250657350E-02
 2.085047662E-01 5.298847333E-02
 2.107110322E-01 5.348128080E-02
 2.129297554E-01 5.398532376E-02
 2.151609361E-01 5.450095981E-02
 2.174046040E-01 5.502855405E-02
 2.196607888E-01 5.556849390E-02
 2.219294906E-01 5.612117797E-02
 2.242107242E-01 5.668702349E-02
 2.265045196E-01 5.726647004E-02
 2.288108766E-01 5.785998330E-02
 2.311298251E-01 5.846804008E-02
 2.334613651E-01 5.909114704E-02
 2.358054966E-01 5.972983316E-02
 2.381622493E-01 6.038466096E-02
 2.405316383E-01 6.105621904E-02
 2.429136485E-01 6.174512208E-02
 2.453083098E-01 6.245202571E-02
 2.477156222E-01 6.317762285E-02
 2.501356006E-01 6.392262876E-02
 2.525682449E-01 6.468782574E-02
 2.550135255E-01 6.547402591E-02
 2.574715018E-01 6.628208607E-02
 2.599421442E-01 6.711293757E-02
 2.624254823E-01 6.796755642E-02
 2.649214864E-01 6.884699315E-02
 2.674301565E-01 6.975235045E-02
 2.699515224E-01 7.068483531E-02
 2.724855542E-01 7.164572924E-02
 2.750322521E-01 7.263641804E-02
 2.775916159E-01 7.365839928E-02
 2.801636457E-01 7.471331209E-02
 2.827483416E-01 7.580292225E-02
 2.853456736E-01 7.692918181E-02
 2.879556417E-01 7.809422910E-02
 2.905782461E-01 7.930045575E-02
 2.932134569E-01 8.055052161E-02
 2.958613038E-01 8.184745163E-02
 2.985217273E-01 8.319456875E-02
 3.011947274E-01 8.459559828E-02
 3.038803041E-01 8.605553210E-02
 3.065784574E-01 8.757928759E-02
 3.092890978E-01 8.917015791E-02
 3.120122850E-01 9.083051980E-02
 3.147479594E-01 9.256217629E-02
 3.174961209E-01 9.436634928E-02
 3.202567399E-01 9.624373913E-02
 3.230297565E-01 9.819452465E-02
 3.258152306E-01 1.002184525E-01
 3.286130428E-01 1.023144722E-01
 3.314232230E-01 1.044818982E-01
 3.342457414E-01 1.067200229E-01
 3.370805681E-01 1.090229228E-01
 3.399276435E-01 1.113888547E-01
 3.427869678E-01 1.138179526E-01
 3.456584811E-01 1.163034216E-01
 3.485421836E-01 1.188486442E-01
 3.514380157E-01 1.214427650E-01
 3.543459177E-01 1.240742058E-01
 3.572659194E-01 1.267461479E-01
 3.601979017E-01 1.294628829E-01
 3.631418645E-01 1.322104633E-01
 3.660977483E-01 1.349670440E-01
 3.690654933E-01 1.377401501E-01
 3.720450699E-01 1.405495703E-01
 3.750364482E-01 1.433435678E-01
 3.780395389E-01 1.461155564E-01
 3.810542822E-01 1.489223689E-01
 3.840806186E-01 1.516803950E-01
 3.871185184E-01 1.544050872E-01
 3.901678622E-01 1.571342349E-01
 3.932286203E-01 1.597716957E-01
 3.963007331E-01 1.624104083E-01
 3.993840814E-01 1.649651080E-01
 4.024785757E-01 1.674414277E-01
 4.055841863E-01 1.698738933E-01
 4.087007940E-01 1.721956432E-01
 4.118283093E-01 1.744481176E-01
 4.149666429E-01 1.765853763E-01
 4.181156456E-01 1.786214858E-01
 4.212752879E-01 1.805409789E-01
 4.244453907E-01 1.823242754E-01
 4.276258647E-01 1.839928478E-01
 4.308166206E-01 1.854874641E-01
 4.340174794E-01 1.868684590E-01
 4.372283220E-01 1.880520284E-01
 4.404490292E-01 1.890847832E-01
 4.436794519E-01 1.899540126E-01
 4.469194710E-01 1.905744672E-01
 4.501688778E-01 1.910852939E-01
 4.534275532E-01 1.913197935E-01
 4.566953778E-01 1.913701296E-01
 4.599721134E-01 1.912288219E-01
 4.632576406E-01 1.907713413E-01
 4.665518105E-01 1.901617348E-01
 4.698544145E-01 1.892911941E-01
 4.731652737E-01 1.880863011E-01
 4.764842689E-01 1.867043972E-01
 4.798111618E-01 1.850414425E-01
 4.831458032E-01 1.830347329E-01
 4.864880145E-01 1.807693392E-01
 4.898376465E-01 1.782543808E-01
 4.931944907E-01 1.753823012E-01
 4.965583980E-01 1.721647382E-01
 4.999292195E-01 1.686839759E-01
 5.033067465E-01 1.648800075E-01
 5.066908002E-01 1.606925130E-01
 5.100812912E-01 1.561551988E-01
 5.134780407E-01 1.512889266E-01
 5.168808699E-01 1.460942775E-01
 5.202897191E-01 1.404957324E-01
 5.237043500E-01 1.344892830E-01
 5.271247625E-01 1.281454563E-01
 5.305507779E-01 1.214086711E-01
 5.339823365E-01 1.143048927E-01
 5.374191999E-01 1.067721024E-01
 5.408614874E-01 9.881179780E-02