variables="N","h^2=(1/N)^(2/3)","h=(1/N)^(1/3)","C_L","C_D","C_Dp","C_Dv"
# 3-D Bump case using tetrahedral grids
# fine grid:  65x705x321
# 1-lev-dwn:  33x353x161
# 2-lev-dwn:  17x177x 81
# 3-lev-dwn:   9x 89x 41
# 4-lev-dwn:   5x 45x 21
zone, t="FUN3D, tets, std"
#14417920.  not completed
 1802240.  6.75240e-5  8.21730e-3  0.3761736E-01  0.6879484E-02  0.2429522E-02  0.4449962E-02
  225280.  2.70096e-4  1.64346e-2  0.3919992E-01  0.1342886E-01  0.9591601E-02  0.3837259E-02
   28160.  1.08038e-3  3.28692e-2  0.4632575E-01  0.2359827E-01  0.2116120E-01  0.2437068E-02
    3520.  4.32154e-3  6.57384e-2  0.4311712E-01  0.2717900E-01  0.2426417E-01  0.2914836E-02
