#SA model results
VARIABLES = "x","cf"
ZONE T="CFL3D"
 9.997505546E-01 2.136733150E-03
 9.994956851E-01 8.279326139E-04
 9.992352128E-01 9.922359604E-04
 9.989690781E-01 1.181426574E-03
 9.986971617E-01 1.305135898E-03
 9.984192848E-01 1.397821470E-03
 9.981353879E-01 1.460152911E-03
 9.978453517E-01 1.503340085E-03
 9.975489378E-01 1.533778268E-03
 9.972460866E-01 1.557352603E-03
 9.969367385E-01 1.577606425E-03
 9.966205955E-01 1.596653135E-03
 9.962975979E-01 1.615426154E-03
 9.959676266E-01 1.634197892E-03
 9.956305623E-01 1.652902574E-03
 9.952861071E-01 1.671371283E-03
 9.949342608E-01 1.689449768E-03
 9.945747852E-01 1.707045245E-03
 9.942075610E-01 1.724127913E-03
 9.938323498E-01 1.740714186E-03
 9.934490919E-01 1.756845624E-03
 9.930576086E-01 1.772572286E-03
 9.926576614E-01 1.787943183E-03
 9.922491312E-01 1.803000690E-03
 9.918317795E-01 1.817779965E-03
 9.914054871E-01 1.832310110E-03
 9.909700155E-01 1.846615924E-03
 9.905252457E-01 1.860718592E-03
 9.900709391E-01 1.874637674E-03
 9.896069169E-01 1.888391562E-03
 9.891329408E-01 1.901997137E-03
 9.886488914E-01 1.915470813E-03
 9.881544709E-01 1.928828191E-03
 9.876495004E-01 1.942084054E-03
 9.871338010E-01 1.955252374E-03
 9.866071343E-01 1.968347002E-03
 9.860692620E-01 1.981380396E-03
 9.855199456E-01 1.994365593E-03
 9.849590063E-01 2.007314470E-03
 9.843862057E-01 2.020238899E-03
 9.838012457E-01 2.033150988E-03
 9.832039475E-01 2.046062378E-03
 9.825940728E-01 2.058984479E-03
 9.819713235E-01 2.071929863E-03
 9.813354611E-01 2.084910404E-03
 9.806861877E-01 2.097939374E-03
 9.800233245E-01 2.111031208E-03
 9.793465734E-01 2.124201972E-03
 9.786556363E-01 2.137470525E-03
 9.779502153E-01 2.150861081E-03
 9.772301316E-01 2.164403675E-03
 9.764949679E-01 2.178138588E-03
 9.757445455E-01 2.192119136E-03
 9.749785066E-01 2.206414705E-03
 9.741965532E-01 2.221117495E-03
 9.733983874E-01 2.236334840E-03
 9.725837111E-01 2.252220642E-03
 9.717522264E-01 2.268859651E-03
 9.709035754E-01 2.286627656E-03
 9.700374603E-01 2.305827336E-03
 9.691535234E-01 2.325262409E-03
 9.682514668E-01 2.343591535E-03
 9.673308730E-01 2.360833110E-03
 9.663915038E-01 2.377187833E-03
 9.654329419E-01 2.392596100E-03
 9.644548297E-01 2.407031134E-03
 9.634568691E-01 2.420453355E-03
 9.624387026E-01 2.432798268E-03
 9.613999128E-01 2.443952719E-03
 9.603402019E-01 2.453738824E-03
 9.592591524E-01 2.461890224E-03
 9.581564069E-01 2.468046267E-03
 9.570315480E-01 2.471710555E-03
 9.558842778E-01 2.472346183E-03
 9.547141790E-01 2.469138941E-03
 9.535208941E-01 2.461900935E-03
 9.523039460E-01 2.448352752E-03
 9.510630965E-01 2.434354275E-03
 9.497979283E-01 2.434058581E-03
 9.485079646E-01 2.441931283E-03
 9.471927285E-01 2.441869117E-03
 9.458519220E-01 2.433662768E-03
 9.444850683E-01 2.429639688E-03
 9.430918097E-01 2.436529147E-03
 9.416716695E-01 2.448488260E-03
 9.402241707E-01 2.459148876E-03
 9.387488365E-01 2.468277002E-03
 9.372453690E-01 2.477687784E-03
 9.357131720E-01 2.487400547E-03
 9.341518283E-01 2.496819710E-03
 9.325609803E-01 2.505980898E-03
 9.309400916E-01 2.514902968E-03
 9.292888045E-01 2.523624105E-03
 9.276065230E-01 2.532161074E-03
 9.258929491E-01 2.540514804E-03
 9.241474867E-01 2.548656659E-03
 9.223697782E-01 2.556534717E-03
 9.205593467E-01 2.564014168E-03
 9.187157154E-01 2.571562771E-03
 9.168384075E-01 2.579093678E-03
 9.149270058E-01 2.584932838E-03
 9.129810929E-01 2.589564770E-03
 9.110001326E-01 2.595933620E-03
 9.089837074E-01 2.604977228E-03
 9.069313407E-01 2.615279052E-03
 9.048426151E-01 2.625718480E-03
 9.027169943E-01 2.635996789E-03
 9.005540609E-01 2.645829227E-03
 8.983533382E-01 2.655171324E-03
 8.961144090E-01 2.664350439E-03
 8.938368559E-01 2.673462266E-03
 8.915202022E-01 2.682454884E-03
 8.891639709E-01 2.691363916E-03
 8.867678642E-01 2.700206824E-03
 8.843312860E-01 2.708993154E-03
 8.818539381E-01 2.717725700E-03
 8.793354034E-01 2.726405161E-03
 8.767752051E-01 2.735032467E-03
 8.741729856E-01 2.743609250E-03
 8.715283871E-01 2.752136905E-03
 8.688409328E-01 2.760617062E-03
 8.661103249E-01 2.769049956E-03
 8.633361459E-01 2.777435817E-03
 8.605180979E-01 2.785772085E-03
 8.576557636E-01 2.794064116E-03
 8.547489047E-01 2.802294213E-03
 8.517971039E-01 2.810586244E-03
 8.488000631E-01 2.819055226E-03
 8.457575440E-01 2.827497665E-03
 8.426691890E-01 2.835781313E-03
 8.395348191E-01 2.843952738E-03
 8.363540173E-01 2.852022648E-03
 8.331267238E-01 2.859997796E-03
 8.298526406E-01 2.867888194E-03
 8.265314698E-01 2.875705017E-03
 8.231631517E-01 2.883458277E-03
 8.197475076E-01 2.891155891E-03
 8.162842989E-01 2.898805775E-03
 8.127734661E-01 2.906411653E-03
 8.092148304E-01 2.913988195E-03
 8.056083322E-01 2.921525156E-03
 8.019539118E-01 2.929231618E-03
 7.982515097E-01 2.937291516E-03
 7.945011258E-01 2.945421264E-03
 7.907026410E-01 2.953444608E-03
 7.868561745E-01 2.961424179E-03
 7.829617262E-01 2.969365334E-03
 7.790193558E-01 2.977272263E-03
 7.750291824E-01 2.985154744E-03
 7.709913254E-01 2.993023954E-03
 7.669059038E-01 3.000889672E-03
 7.627730966E-01 3.008764004E-03
 7.585930824E-01 3.016647417E-03
 7.543661594E-01 3.024579491E-03
 7.500925064E-01 3.032675013E-03
 7.457724214E-01 3.040938405E-03
 7.414062619E-01 3.049262566E-03
 7.369942665E-01 3.057627939E-03
 7.325369120E-01 3.066055709E-03
 7.280345559E-01 3.074542852E-03
 7.234875560E-01 3.083091229E-03
 7.188965082E-01 3.091704799E-03
 7.142618299E-01 3.100388218E-03
 7.095840573E-01 3.109146142E-03
 7.048637271E-01 3.117983229E-03
 7.001014352E-01 3.126903437E-03
 6.952978373E-01 3.135911189E-03
 6.904534698E-01 3.145011375E-03
 6.855691671E-01 3.154208651E-03
 6.806454659E-01 3.163510002E-03
 6.756832600E-01 3.172921482E-03
 6.706832051E-01 3.182456829E-03
 6.656461954E-01 3.192112781E-03
 6.605730057E-01 3.201942192E-03
 6.554644704E-01 3.211791394E-03
 6.503215432E-01 3.221265040E-03
 6.451451778E-01 3.230768489E-03
 6.399362087E-01 3.241099184E-03
 6.346957088E-01 3.252272028E-03
 6.294246316E-01 3.264081897E-03
 6.241239905E-01 3.276486881E-03
 6.187948585E-01 3.289421555E-03
 6.134383082E-01 3.302785335E-03
 6.080553532E-01 3.316577291E-03
 6.026471853E-01 3.329816507E-03
 5.972149372E-01 3.341815202E-03
 5.917598009E-01 3.353988053E-03
 5.862830281E-01 3.367086640E-03
 5.807857513E-01 3.380792215E-03
 5.752692223E-01 3.395071952E-03
 5.697346330E-01 3.409908619E-03
 5.641833544E-01 3.425205126E-03
 5.586165786E-01 3.441025037E-03
 5.530356765E-01 3.456130624E-03
 5.474418402E-01 3.469743533E-03
 5.418365002E-01 3.484020708E-03
 5.362210274E-01 3.500069492E-03
 5.305966735E-01 3.517369740E-03
 5.249648690E-01 3.535795491E-03
 5.193268657E-01 3.555267584E-03
 5.136840343E-01 3.575610695E-03
 5.080377460E-01 3.596780123E-03
 5.023893118E-01 3.614787944E-03
 4.967401624E-01 3.628585022E-03
 4.910918772E-01 3.645628458E-03
 4.854457378E-01 3.668531310E-03
 4.798030555E-01 3.695268417E-03
 4.741651416E-01 3.725420451E-03
 4.685332477E-01 3.758435603E-03
 4.629087150E-01 3.793817945E-03
 4.572927952E-01 3.830330912E-03
 4.516867995E-01 3.858309705E-03
 4.460920990E-01 3.876129864E-03
 4.405103326E-01 3.898953553E-03
 4.349427223E-01 3.931216430E-03
 4.293904603E-01 3.969041165E-03
 4.238547385E-01 4.011960234E-03
 4.183367491E-01 4.059087951E-03
 4.128376245E-01 4.109357949E-03
 4.073585570E-01 4.161379300E-03
 4.019007087E-01 4.201721866E-03
 3.964653313E-01 4.225541838E-03
 3.910539150E-01 4.252277780E-03
 3.856675327E-01 4.289139528E-03
 3.803073168E-01 4.331502132E-03
 3.749742508E-01 4.378851037E-03
 3.696694374E-01 4.430488683E-03
 3.643938601E-01 4.484635312E-03
 3.591485620E-01 4.542152863E-03
 3.539345562E-01 4.591887351E-03
 3.487528563E-01 4.620132037E-03
 3.436045647E-01 4.642530344E-03
 3.384906650E-01 4.674819298E-03
 3.334120810E-01 4.714743700E-03
 3.283696175E-01 4.760029260E-03
 3.233641684E-01 4.809964448E-03
 3.183965683E-01 4.863159265E-03
 3.134675920E-01 4.918442108E-03
 3.085780740E-01 4.973785486E-03
 3.037288189E-01 5.031897221E-03
 2.989205420E-01 5.091164261E-03
 2.941540182E-01 5.136128049E-03
 2.894300222E-01 5.159780383E-03
 2.847491205E-01 5.166813266E-03
 2.801119089E-01 5.160687026E-03
 2.755188346E-01 5.143947899E-03
 2.709704041E-01 5.119164009E-03
 2.664669752E-01 5.088416394E-03
 2.620089352E-01 5.053719971E-03
 2.575966120E-01 5.015517119E-03
 2.532302439E-01 4.980087280E-03
 2.489101440E-01 4.959937185E-03
 2.446366549E-01 4.955832846E-03
 2.404101193E-01 4.960850812E-03
 2.362308204E-01 4.972661845E-03
 2.320990115E-01 4.990251269E-03
 2.280149311E-01 5.012093578E-03
 2.239787877E-01 5.037065595E-03
 2.199907601E-01 5.064371042E-03
 2.160509974E-01 5.093411542E-03
 2.121596336E-01 5.123738665E-03
 2.083167732E-01 5.154838320E-03
 2.045225054E-01 5.186621565E-03
 2.007768899E-01 5.217561033E-03
 1.970799714E-01 5.242469255E-03
 1.934316903E-01 5.257898476E-03
 1.898319870E-01 5.265157670E-03
 1.862806976E-01 5.266099237E-03
 1.827777028E-01 5.261798855E-03
 1.793228090E-01 5.253341515E-03
 1.759158373E-01 5.241654813E-03
 1.725565642E-01 5.227464251E-03
 1.692447662E-01 5.211303942E-03
 1.659801900E-01 5.193572957E-03
 1.627625823E-01 5.174544174E-03
 1.595916599E-01 5.154577084E-03
 1.564671248E-01 5.133683793E-03
 1.533886939E-01 5.113698076E-03
 1.503560394E-01 5.102055147E-03
 1.473689079E-01 5.100450944E-03
 1.444270760E-01 5.101303104E-03
 1.415302306E-01 5.102139898E-03
 1.386780590E-01 5.104046315E-03
 1.358702183E-01 5.106472876E-03
 1.331063509E-01 5.109176040E-03
 1.303861141E-01 5.112090148E-03
 1.277091354E-01 5.115223117E-03
 1.250750273E-01 5.118587986E-03
 1.224834174E-01 5.122177768E-03
 1.199338958E-01 5.125965457E-03
 1.174260676E-01 5.129918922E-03
 1.149595231E-01 5.134007428E-03
 1.125338450E-01 5.138211418E-03
 1.101486087E-01 5.142511334E-03
 1.078033820E-01 5.146889947E-03
 1.054977328E-01 5.151215009E-03
 1.032312289E-01 5.155437160E-03
 1.010034159E-01 5.156861152E-03
 9.881384671E-02 5.153451115E-03
 9.666202962E-02 5.148559809E-03
 9.454749525E-02 5.144281313E-03
 9.246978164E-02 5.140147638E-03
 9.042843431E-02 5.136312917E-03
 8.842299879E-02 5.132917315E-03
 8.645299822E-02 5.129993893E-03
 8.451798558E-02 5.127493758E-03
 8.261749148E-02 5.125361029E-03
 8.075105399E-02 5.123580806E-03
 7.891821861E-02 5.122109782E-03
 7.711853087E-02 5.120911170E-03
 7.535152137E-02 5.119987763E-03
 7.361673564E-02 5.119337235E-03
 7.191371918E-02 5.118963774E-03
 7.024202496E-02 5.118880421E-03
 6.860119104E-02 5.119112320E-03
 6.699077785E-02 5.119703244E-03
 6.541033089E-02 5.120723043E-03
 6.385941803E-02 5.122277420E-03
 6.233758852E-02 5.124526098E-03
 6.084440649E-02 5.127707031E-03
 5.937944725E-02 5.132156890E-03
 5.794227496E-02 5.138350651E-03
 5.653246865E-02 5.146840122E-03
 5.514961109E-02 5.158399232E-03
 5.379329249E-02 5.173181649E-03
 5.246310309E-02 5.192989483E-03
 5.115865543E-02 5.211732816E-03
 4.987955093E-02 5.215753336E-03
 4.862534627E-02 5.210820585E-03
 4.739559442E-02 5.211294163E-03
 4.618990794E-02 5.217887927E-03
 4.500791058E-02 5.228900351E-03
 4.384922981E-02 5.245561711E-03
 4.271349683E-02 5.268663634E-03
 4.160035402E-02 5.298742559E-03
 4.050944373E-02 5.336172879E-03
 3.944041580E-02 5.381199066E-03
 3.839294240E-02 5.433864426E-03
 3.736666963E-02 5.493891425E-03
 3.636128455E-02 5.560507067E-03
 3.537644818E-02 5.632299930E-03
 3.441184014E-02 5.707082804E-03
 3.346714005E-02 5.781832617E-03
 3.254200891E-02 5.852733739E-03
 3.163613379E-02 5.915329792E-03
 3.074916080E-02 5.964877084E-03
 2.988076396E-02 5.996794906E-03
 2.903058194E-02 6.007532589E-03
 2.819825523E-02 5.995000713E-03
 2.738342062E-02 5.961460527E-03
 2.658569999E-02 5.908475723E-03
 2.580472454E-02 5.860527977E-03
 2.504011430E-02 5.883592647E-03
 2.429169230E-02 5.978695583E-03
 2.355940640E-02 6.079225801E-03
 2.284297720E-02 6.174765527E-03
 2.214216255E-02 6.280431524E-03
 2.145670354E-02 6.393475924E-03
 2.078633569E-02 6.512616761E-03
 2.013084479E-02 6.637428422E-03
 1.948996261E-02 6.768032908E-03
 1.886346564E-02 6.904522423E-03
 1.825112849E-02 7.046713028E-03
 1.765269414E-02 7.194069680E-03
 1.706797071E-02 7.345608436E-03
 1.649670675E-02 7.500046398E-03
 1.593868062E-02 7.655762602E-03
 1.539369021E-02 7.810788229E-03
 1.486147661E-02 7.962906733E-03
 1.434185170E-02 8.109514602E-03
 1.383457612E-02 8.247697726E-03
 1.333940681E-02 8.374212310E-03
 1.285615284E-02 8.485341445E-03
 1.238454878E-02 8.577048779E-03
 1.192437578E-02 8.644681424E-03
 1.147540938E-02 8.683488704E-03
 1.103737950E-02 8.687293157E-03
 1.061007660E-02 8.653965779E-03
 1.019324362E-02 8.528432809E-03
 9.786547162E-03 8.318150416E-03
 9.389444254E-03 8.173150010E-03
 9.001806378E-03 8.146514185E-03
 8.623584174E-03 8.200713433E-03
 8.254772052E-03 8.331710473E-03
 7.895328104E-03 8.539848961E-03
 7.545236498E-03 8.824037388E-03
 7.204530761E-03 9.182025678E-03
 6.873171311E-03 9.611327201E-03
 6.551199593E-03 1.010874938E-02
 6.238665897E-03 1.067037042E-02
 5.935526919E-03 1.129160170E-02
 5.641892552E-03 1.196562406E-02
 5.357792135E-03 1.268382277E-02
 5.083175376E-03 1.343601756E-02
 4.818195011E-03 1.420930214E-02
 4.562828690E-03 1.498940121E-02
 4.316995386E-03 1.576143689E-02
 4.080845043E-03 1.650942303E-02
 3.854274284E-03 1.721720770E-02
 3.637133632E-03 1.786986180E-02
 3.429513192E-03 1.845411025E-02
 3.231222741E-03 1.895752363E-02
 3.042007098E-03 1.937096380E-02
 2.861846006E-03 1.968998276E-02
 2.690493362E-03 1.991419867E-02
 2.527598292E-03 2.004558593E-02
 2.372958232E-03 2.010674030E-02
 2.226354321E-03 2.009269036E-02
 2.087388886E-03 2.023187838E-02
 1.955782995E-03 2.071638592E-02
 1.832882059E-03 2.114341222E-02
 1.718537649E-03 2.121590450E-02
 1.612004358E-03 2.103134803E-02
 1.512641786E-03 2.066882700E-02
 1.420039567E-03 2.018141188E-02
 1.333664753E-03 1.961418055E-02
 1.253001625E-03 1.900072396E-02
 1.177590457E-03 1.836516522E-02
 1.107052551E-03 1.772460714E-02
 1.041079056E-03 1.709119044E-02
 9.793153731E-04 1.646993496E-02
 9.214414749E-04 1.586387865E-02
 8.671685355E-04 1.527516358E-02
 8.162400336E-04 1.470537391E-02
 7.684506127E-04 1.415679790E-02
 7.235798985E-04 1.362948213E-02
 6.814224180E-04 1.312271878E-02
 6.417906261E-04 1.263637282E-02
 6.045130431E-04 1.216961537E-02
 5.694334977E-04 1.172181312E-02
 5.364209646E-04 1.129295304E-02
 5.053424393E-04 1.088218298E-02
 4.760721931E-04 1.048835646E-02
 4.484944220E-04 1.011070982E-02
 4.225021112E-04 9.748485871E-03
 3.979962203E-04 9.400800802E-03
 3.748851304E-04 9.066868573E-03
 3.530888062E-04 8.746321313E-03
 3.325290454E-04 8.438503370E-03
 3.131311678E-04 8.142584004E-03
 2.948256733E-04 7.857947610E-03
 2.775479225E-04 7.584017701E-03
 2.612375538E-04 7.320245728E-03
 2.458382514E-04 7.066113409E-03
 2.312974975E-04 6.821062416E-03
 2.175667032E-04 6.584689487E-03
 2.046016161E-04 6.356716622E-03
 1.923586824E-04 6.136659998E-03
 1.807971275E-04 5.924070254E-03
 1.698786800E-04 5.718611181E-03
 1.595674548E-04 5.519934930E-03
 1.498297497E-04 5.327727180E-03
 1.406338997E-04 5.141683389E-03
 1.319501753E-04 4.961528350E-03
 1.237505348E-04 4.786957987E-03
 1.160087122E-04 4.617722705E-03
 1.087005658E-04 4.453676287E-03
 1.018026742E-04 4.294574726E-03
 9.529286035E-05 4.140165634E-03
 8.915021317E-05 3.990261815E-03
 8.335502935E-05 3.844670719E-03
 7.788869698E-05 3.703215392E-03
 7.273365190E-05 3.565728432E-03
 6.787331949E-05 3.432051046E-03
 6.329201278E-05 3.302033292E-03
 5.897494339E-05 3.175531514E-03
 5.490810508E-05 3.052413929E-03
 5.107825564E-05 2.932534087E-03
 4.747289131E-05 2.815773943E-03
 4.408036693E-05 2.702063182E-03
 4.088942660E-05 2.591278404E-03
 3.788941467E-05 2.483295742E-03
 3.507024303E-05 2.378022997E-03
 3.242235471E-05 2.275364706E-03
 2.993670751E-05 2.175231930E-03
 2.760472307E-05 2.077539917E-03
 2.541827780E-05 1.982206944E-03
 2.336967009E-05 1.889155945E-03
 2.145160215E-05 1.798312878E-03
 1.965715273E-05 1.709607197E-03
 1.797975892E-05 1.622971264E-03
 1.641319432E-05 1.538341050E-03
 1.495155902E-05 1.455653226E-03
 1.358925056E-05 1.374850399E-03
 1.232095474E-05 1.295872265E-03
 1.114163024E-05 1.218662015E-03
 1.004652768E-05 1.143184491E-03
 9.031105947E-06 1.069389516E-03
 8.091044037E-06 9.972184198E-04
 7.222245131E-06 9.266264387E-04
 6.420820682E-06 8.575693355E-04
 5.683079507E-06 7.900041528E-04
 5.005518233E-06 7.238892140E-04
 4.384811291E-06 6.591840065E-04
 3.817801371E-06 5.958490074E-04
 3.301492143E-06 5.338455667E-04
 2.833038479E-06 4.731354711E-04
 2.409740318E-06 4.136810021E-04
 2.029034022E-06 3.554442956E-04
 1.688486009E-06 2.983871091E-04
 1.385786504E-06 2.424704144E-04
 1.118742830E-06 1.876531605E-04
 8.852738347E-07 1.338927832E-04
 6.834043802E-07 8.114055527E-05
 5.112596568E-07 2.934890836E-05
 3.670607214E-07 2.155488073E-05
 2.491193243E-07 7.160703535E-05
 1.558336322E-07 1.209834663E-04
 8.568387244E-08 1.695597166E-04
 3.722830400E-08 2.179695584E-04
 9.099365705E-09 2.637287253E-04
 0.000000000E+00 3.022589372E-04
 9.136088330E-09 3.404807940E-04
 3.753262234E-08 3.857683332E-04
 8.674717833E-08 4.340907617E-04
 1.584429299E-07 4.829985555E-04
 2.543956725E-07 5.330672720E-04
 3.765014753E-07 5.841639359E-04
 5.267846177E-07 6.364553119E-04
 7.074062296E-07 6.899790023E-04
 9.206736991E-07 7.448124234E-04
 1.169050279E-06 8.010119782E-04
 1.455165943E-06 8.586383192E-04
 1.781828360E-06 9.177484899E-04
 2.152034995E-06 9.783999994E-04
 2.568986474E-06 1.040650532E-03
 3.036099770E-06 1.104558818E-03
 3.557023547E-06 1.170184696E-03
 4.135653398E-06 1.237589517E-03
 4.776150035E-06 1.306836726E-03
 5.482955657E-06 1.377991051E-03
 6.260815098E-06 1.451120595E-03
 7.114794244E-06 1.526293578E-03
 8.050305951E-06 1.603583922E-03
 9.073130968E-06 1.683064504E-03
 1.018944386E-05 1.764811226E-03
 1.140585937E-05 1.848928165E-03
 1.272939062E-05 1.935492037E-03
 1.416748910E-05 2.024555812E-03
 1.572817018E-05 2.116215881E-03
 1.742000495E-05 2.210574457E-03
 1.925214201E-05 2.307723742E-03
 2.123435843E-05 2.407762688E-03
 2.337710430E-05 2.510791412E-03
 2.569153912E-05 2.616913756E-03
 2.818959183E-05 2.726235893E-03
 3.088400626E-05 2.838865621E-03
 3.378840120E-05 2.954914467E-03
 3.691733582E-05 3.074492328E-03
 4.028635522E-05 3.197718412E-03
 4.391208131E-05 3.324690741E-03
 4.781228199E-05 3.455578117E-03
 5.200590749E-05 3.590527922E-03
 5.651255560E-05 3.729540389E-03
 6.135369767E-05 3.872726811E-03
 6.655229663E-05 4.020244814E-03
 7.213283970E-05 4.172189161E-03
 7.812149124E-05 4.328665324E-03
 8.454616182E-05 4.489765037E-03
 9.143664647E-05 4.655571654E-03
 9.882472659E-05 4.826168064E-03
 1.067443154E-04 5.001590122E-03
 1.152315599E-04 5.181994755E-03
 1.243247098E-04 5.367457867E-03
 1.340622839E-04 5.557753146E-03
 1.444871887E-04 5.752852187E-03
 1.556452189E-04 5.952802952E-03
 1.675850508E-04 6.157504395E-03
 1.803584455E-04 6.366849411E-03
 1.940203510E-04 6.580661982E-03
 2.086290624E-04 6.798772141E-03
 2.242464543E-04 7.021139376E-03
 2.409349836E-04 7.247353904E-03
 2.587575873E-04 7.476692554E-03
 2.777856134E-04 7.708808873E-03
 2.980943536E-04 7.943322882E-03
 3.197632032E-04 8.179636672E-03
 3.428756027E-04 8.417092264E-03
 3.675194166E-04 8.655283600E-03
 3.937832080E-04 8.893457241E-03
 4.217478563E-04 9.130137973E-03
 4.515093169E-04 9.364408441E-03
 4.831687256E-04 9.595553391E-03
 5.168315256E-04 9.822391905E-03
 5.526072346E-04 1.004416775E-02
 5.906074657E-04 1.026000362E-02
 6.309231394E-04 1.046803687E-02
 6.736622890E-04 1.066693477E-02
 7.189432508E-04 1.085590106E-02
 7.668873877E-04 1.103382930E-02
 8.176192059E-04 1.120008528E-02
 8.712525596E-04 1.135365479E-02
 9.278748767E-04 1.149286516E-02
 9.876071708E-04 1.161706634E-02
 1.050574356E-03 1.172581129E-02
 1.116902800E-03 1.181874517E-02
 1.186710899E-03 1.189547312E-02
 1.260070479E-03 1.195469219E-02
 1.337093418E-03 1.199576352E-02
 1.417899854E-03 1.201823726E-02
 1.502609928E-03 1.202159282E-02
 1.591327600E-03 1.200542413E-02
 1.684108633E-03 1.196939498E-02
 1.781058498E-03 1.191480178E-02
 1.882287790E-03 1.183003467E-02
 1.987906406E-03 1.171926688E-02
 2.097738907E-03 1.166357286E-02
 2.211534185E-03 1.170757506E-02
 2.329434268E-03 1.178806927E-02
 2.451587468E-03 1.186778862E-02
 2.578142099E-03 1.194817852E-02
 2.709213877E-03 1.202335954E-02
 2.844951116E-03 1.209145691E-02
 2.985515632E-03 1.215106715E-02
 3.131073900E-03 1.220155414E-02
 3.281754674E-03 1.224231813E-02
 3.437707433E-03 1.227300428E-02
 3.599108662E-03 1.229362469E-02
 3.766138339E-03 1.230423339E-02
 3.938932437E-03 1.230467018E-02
 4.117649049E-03 1.229481585E-02
 4.302477930E-03 1.227482036E-02
 4.493609536E-03 1.224481035E-02
 4.691177048E-03 1.220468339E-02
 4.895357881E-03 1.215444691E-02
 5.106354132E-03 1.209433656E-02
 5.324353930E-03 1.202451158E-02
 5.549492314E-03 1.194497012E-02
 5.781971384E-03 1.185589563E-02
 6.022005808E-03 1.175759546E-02
 6.269752979E-03 1.165016927E-02
 6.525381934E-03 1.153364405E-02
 6.789113861E-03 1.140804961E-02
 7.061153185E-03 1.127317827E-02
 7.341639139E-03 1.112830825E-02
 7.630790118E-03 1.097232662E-02
 7.928836159E-03 1.080371533E-02
 8.235924877E-03 1.062055118E-02
 8.552256972E-03 1.042111963E-02
 8.878069930E-03 1.020469517E-02
 9.213547222E-03 9.972301312E-03
 9.558859281E-03 9.711836465E-03
 9.914254770E-03 9.414955974E-03
 1.027964428E-02 9.181986563E-03
 1.065458171E-02 9.098732844E-03
 1.103932597E-02 9.078923613E-03
 1.143415272E-02 9.056033567E-03
 1.183930133E-02 9.031974711E-03
 1.225505583E-02 8.998143487E-03
 1.268169191E-02 8.952748030E-03
 1.311944425E-02 8.894621395E-03
 1.356859971E-02 8.824077435E-03
 1.402942371E-02 8.741972968E-03
 1.450214814E-02 8.649535477E-03
 1.498705801E-02 8.548143320E-03
 1.548440382E-02 8.439246565E-03
 1.599442028E-02 8.324254304E-03
 1.651739143E-02 8.204522543E-03
 1.705354452E-02 8.081326261E-03
 1.760313101E-02 7.955797948E-03
 1.816642471E-02 7.828906178E-03
 1.874364167E-02 7.701369002E-03
 1.933504827E-02 7.573472336E-03
 1.994090714E-02 7.444949821E-03
 2.056143992E-02 7.314910181E-03
 2.119692415E-02 7.182001602E-03
 2.184761129E-02 7.045112085E-03
 2.251373976E-02 6.904475857E-03
 2.319559827E-02 6.762826815E-03
 2.389342897E-02 6.619277410E-03
 2.460749634E-02 6.443629041E-03
 2.533790283E-02 6.327455863E-03
 2.608367801E-02 6.420038175E-03
 2.684505098E-02 6.631449796E-03
 2.762253582E-02 6.839010399E-03
 2.841666900E-02 7.029026747E-03
 2.922801860E-02 7.186751813E-03
 3.005714715E-02 7.305931300E-03
 3.090462647E-02 7.384099532E-03
 3.177102283E-02 7.422304247E-03
 3.265686706E-02 7.423770614E-03
 3.356269374E-02 7.393235806E-03
 3.448896855E-02 7.336262614E-03
 3.543617576E-02 7.258725353E-03
 3.640473634E-02 7.166374475E-03
 3.739504889E-02 7.064492442E-03
 3.840752691E-02 6.957664154E-03
 3.944249451E-02 6.849615369E-03
 4.050034285E-02 6.743118633E-03
 4.158139601E-02 6.639983505E-03
 4.268599302E-02 6.541078910E-03
 4.381449521E-02 6.446499843E-03
 4.496720061E-02 6.355927791E-03
 4.614447430E-02 6.269139703E-03
 4.734666646E-02 6.186687388E-03
 4.857409373E-02 6.104820874E-03
 4.982713982E-02 6.023588590E-03
 5.110596120E-02 5.971703213E-03
 5.241059884E-02 5.966797471E-03
 5.374143273E-02 5.982923321E-03
 5.509884655E-02 6.002960727E-03
 5.648323894E-02 6.026696414E-03
 5.789502338E-02 6.051560398E-03
 5.933462828E-02 6.076959427E-03
 6.080247462E-02 6.102513056E-03
 6.229900941E-02 6.128170993E-03
 6.382468343E-02 6.153953262E-03
 6.537993252E-02 6.179918069E-03
 6.696522981E-02 6.206123158E-03
 6.858104467E-02 6.232620683E-03
 7.022784650E-02 6.259454880E-03
 7.190610468E-02 6.286652759E-03
 7.361631095E-02 6.314232480E-03
 7.535895705E-02 6.342211273E-03
 7.713454217E-02 6.370564457E-03
 7.894356549E-02 6.399235688E-03
 8.078654110E-02 6.428153254E-03
 8.266399056E-02 6.457169075E-03
 8.457645029E-02 6.485995837E-03
 8.652444184E-02 6.514098495E-03
 8.850853145E-02 6.540521048E-03
 9.052927792E-02 6.563705392E-03
 9.258724749E-02 6.581403781E-03
 9.468306601E-02 6.590814795E-03
 9.681734443E-02 6.588478573E-03
 9.899071604E-02 6.567297038E-03
 1.012038812E-01 6.526875775E-03
 1.034572199E-01 6.480584387E-03
 1.057511643E-01 6.435754243E-03
 1.080861017E-01 6.391134579E-03
 1.104624495E-01 6.346794311E-03
 1.128805801E-01 6.302801427E-03
 1.153408885E-01 6.259289570E-03
 1.178437248E-01 6.216489710E-03
 1.203894615E-01 6.174726412E-03
 1.229784340E-01 6.134410854E-03
 1.256109774E-01 6.096072495E-03
 1.282874197E-01 6.060433574E-03
 1.310080588E-01 6.028540432E-03
 1.337732077E-01 6.001889240E-03
 1.365831196E-01 5.982429720E-03
 1.394380629E-01 5.972262938E-03
 1.423382759E-01 5.972948857E-03
 1.452840120E-01 5.985851400E-03
 1.482754499E-01 6.019484717E-03
 1.513128877E-01 6.055918057E-03
 1.543972790E-01 6.056273822E-03
 1.575290263E-01 6.031755358E-03
 1.607083827E-01 6.006618962E-03
 1.639355719E-01 5.981248803E-03
 1.672107875E-01 5.956306588E-03
 1.705342084E-01 5.931927357E-03
 1.739060134E-01 5.908396095E-03
 1.773263365E-01 5.886164960E-03
 1.807952970E-01 5.865961313E-03
 1.843129992E-01 5.848719738E-03
 1.878795326E-01 5.835381337E-03
 1.914949417E-01 5.826465786E-03
 1.951592714E-01 5.823466927E-03
 1.988725364E-01 5.828476045E-03
 2.026348412E-01 5.828282796E-03
 2.064464837E-01 5.808183923E-03
 2.103074640E-01 5.779430270E-03
 2.142176777E-01 5.752047990E-03
 2.181770205E-01 5.724887364E-03
 2.221853733E-01 5.698898807E-03
 2.262425721E-01 5.674527492E-03
 2.303484231E-01 5.652585998E-03
 2.345027179E-01 5.633964669E-03
 2.387052178E-01 5.619471427E-03
 2.429556400E-01 5.609721411E-03
 2.472537011E-01 5.607874133E-03
 2.515990734E-01 5.608872045E-03
 2.559916377E-01 5.599413067E-03
 2.604311109E-01 5.581862759E-03
 2.649170458E-01 5.564295687E-03
 2.694490254E-01 5.547173321E-03
 2.740266323E-01 5.530760624E-03
 2.786493599E-01 5.515383556E-03
 2.833167017E-01 5.501458887E-03
 2.880280614E-01 5.489477888E-03
 2.927829027E-01 5.479966290E-03
 2.975806296E-01 5.473806523E-03
 3.024205267E-01 5.471232813E-03
 3.073019981E-01 5.470415112E-03
 3.122243881E-01 5.469453521E-03
 3.171869516E-01 5.467812996E-03
 3.221889734E-01 5.465170369E-03
 3.272297084E-01 5.461047404E-03
 3.323082924E-01 5.454964936E-03
 3.374239206E-01 5.446565803E-03
 3.425757289E-01 5.435374100E-03
 3.477627635E-01 5.420132540E-03
 3.529841304E-01 5.405165255E-03
 3.582387567E-01 5.396913737E-03
 3.635256588E-01 5.391538609E-03
 3.688438237E-01 5.384503864E-03
 3.741921782E-01 5.375877023E-03
 3.795696199E-01 5.364993121E-03
 3.849750459E-01 5.351318046E-03
 3.904072940E-01 5.334272049E-03
 3.958651721E-01 5.312830210E-03
 4.013474882E-01 5.286728963E-03
 4.068529904E-01 5.258256104E-03
 4.123803973E-01 5.229436792E-03
 4.179284573E-01 5.200428888E-03
 4.234958887E-01 5.171414930E-03
 4.290813506E-01 5.142816808E-03
 4.346835315E-01 5.114886910E-03
 4.403010905E-01 5.087660626E-03
 4.459326863E-01 5.062573124E-03
 4.515769482E-01 5.036863033E-03
 4.572324455E-01 5.003500264E-03
 4.628977478E-01 4.964715801E-03
 4.685714841E-01 4.926274531E-03
 4.742522538E-01 4.889172502E-03
 4.799386859E-01 4.854024854E-03
 4.856293797E-01 4.821468145E-03
 4.913229942E-01 4.792073742E-03
 4.970181286E-01 4.767586943E-03
 5.027133822E-01 4.745196085E-03
 5.084072948E-01 4.718208220E-03
 5.140982866E-01 4.688000772E-03
 5.197851062E-01 4.658142105E-03
 5.254663229E-01 4.628560971E-03
 5.311404467E-01 4.599478561E-03
 5.368062258E-01 4.570988938E-03
 5.424621701E-01 4.543291871E-03
 5.481070280E-01 4.516753834E-03
 5.537393093E-01 4.490126856E-03
 5.593577027E-01 4.461633973E-03
 5.649608374E-01 4.432207905E-03
 5.705474019E-01 4.402888007E-03
 5.761160851E-01 4.373577889E-03
 5.816655755E-01 4.344389308E-03
 5.871946812E-01 4.315318540E-03
 5.927020907E-01 4.286461510E-03
 5.981865525E-01 4.258025438E-03
 6.036469936E-01 4.228674341E-03
 6.090819836E-01 4.196986556E-03
 6.144904494E-01 4.164395388E-03
 6.198713183E-01 4.132117610E-03
 6.252234578E-01 4.100122023E-03
 6.305457950E-01 4.068619106E-03
 6.358372569E-01 4.037703853E-03
 6.410969496E-01 4.007379990E-03
 6.463238001E-01 3.978347406E-03
 6.515168548E-01 3.949534148E-03
 6.566750407E-01 3.917829599E-03
 6.617975235E-01 3.883991856E-03
 6.668834090E-01 3.850304987E-03
 6.719318032E-01 3.817055607E-03
 6.769419909E-01 3.784391098E-03
 6.819131970E-01 3.752480960E-03
 6.868446469E-01 3.721447196E-03
 6.917357445E-01 3.691279795E-03
 6.965857744E-01 3.662780859E-03
 7.013940811E-01 3.634839552E-03
 7.061598897E-01 3.603982041E-03
 7.108826041E-01 3.570870729E-03
 7.155616879E-01 3.537917277E-03
 7.201966643E-01 3.505397122E-03
 7.247869968E-01 3.473422956E-03
 7.293322682E-01 3.442151472E-03
 7.338320613E-01 3.411703510E-03
 7.382860184E-01 3.382130759E-03
 7.426938415E-01 3.353276057E-03
 7.470550537E-01 3.326368285E-03
 7.513694763E-01 3.299263073E-03
 7.556365132E-01 3.266370157E-03
 7.598559260E-01 3.229733324E-03
 7.640274763E-01 3.193712095E-03
 7.681511045E-01 3.158663167E-03
 7.722266912E-01 3.124779090E-03
 7.762541771E-01 3.092268482E-03
 7.802335024E-01 3.061360680E-03
 7.841645479E-01 3.032286884E-03
 7.880474329E-01 3.005240113E-03
 7.918820977E-01 2.980189398E-03
 7.956685424E-01 2.957793884E-03
 7.994068861E-01 2.938538790E-03
 8.030970097E-01 2.917253412E-03
 8.067386746E-01 2.889857627E-03
 8.103320599E-01 2.860822948E-03
 8.138772249E-01 2.832959173E-03
 8.173744082E-01 2.805742435E-03
 8.208237290E-01 2.779440023E-03
 8.242253661E-01 2.754040761E-03
 8.275795579E-01 2.729625674E-03
 8.308865428E-01 2.706269734E-03
 8.341464400E-01 2.684076549E-03
 8.373596072E-01 2.663144143E-03
 8.405262828E-01 2.643556800E-03
 8.436467648E-01 2.625278896E-03
 8.467212915E-01 2.608725103E-03
 8.497501612E-01 2.594013466E-03
 8.527336121E-01 2.578488085E-03
 8.556718826E-01 2.560440218E-03
 8.585653305E-01 2.541885711E-03
 8.614141345E-01 2.523863222E-03
 8.642188311E-01 2.506082878E-03
 8.669796586E-01 2.488597529E-03
 8.696969748E-01 2.471342450E-03
 8.723712564E-01 2.454292262E-03
 8.750028014E-01 2.437418094E-03
 8.775919676E-01 2.420703880E-03
 8.801392317E-01 2.404138679E-03