#SA model results
VARIABLES = "x","cp"
ZONE T="CFL3D"
 1.000000000E+00 1.651332825E-01
 9.997505546E-01 1.752008051E-01
 9.994956851E-01 1.830516160E-01
 9.992352128E-01 1.812659353E-01
 9.989690781E-01 1.810042411E-01
 9.986971617E-01 1.800036579E-01
 9.984192848E-01 1.792339683E-01
 9.981353879E-01 1.783257276E-01
 9.978453517E-01 1.774021089E-01
 9.975489378E-01 1.764169037E-01
 9.972460866E-01 1.753855199E-01
 9.969367385E-01 1.743541360E-01
 9.966205955E-01 1.733073592E-01
 9.962975979E-01 1.722759902E-01
 9.959676266E-01 1.712446064E-01
 9.956305623E-01 1.702286154E-01
 9.952861071E-01 1.692126244E-01
 9.949342608E-01 1.682120264E-01
 9.945747852E-01 1.672114432E-01
 9.942075610E-01 1.662108451E-01
 9.938323498E-01 1.652256399E-01
 9.934490919E-01 1.642250419E-01
 9.930576086E-01 1.632244587E-01
 9.926576614E-01 1.622238606E-01
 9.922491312E-01 1.612232625E-01
 9.918317795E-01 1.602226645E-01
 9.914054871E-01 1.592220813E-01
 9.909700155E-01 1.582060903E-01
 9.905252457E-01 1.571900994E-01
 9.900709391E-01 1.561741084E-01
 9.896069169E-01 1.551581174E-01
 9.891329408E-01 1.541267335E-01
 9.886488914E-01 1.530953497E-01
 9.881544709E-01 1.520639807E-01
 9.876495004E-01 1.510172039E-01
 9.871338010E-01 1.499704272E-01
 9.866071343E-01 1.489236504E-01
 9.860692620E-01 1.478614807E-01
 9.855199456E-01 1.467993110E-01
 9.849590063E-01 1.457217485E-01
 9.843862057E-01 1.446441859E-01
 9.838012457E-01 1.435512304E-01
 9.832039475E-01 1.424582750E-01
 9.825940728E-01 1.413653046E-01
 9.819713235E-01 1.402569562E-01
 9.813354611E-01 1.391332150E-01
 9.806861877E-01 1.380094737E-01
 9.800233245E-01 1.368857324E-01
 9.793465734E-01 1.357465833E-01
 9.786556363E-01 1.346074492E-01
 9.779502153E-01 1.334683150E-01
 9.772301316E-01 1.323137730E-01
 9.764949679E-01 1.311592460E-01
 9.757445455E-01 1.299893260E-01
 9.749785066E-01 1.288347840E-01
 9.741965532E-01 1.276802570E-01
 9.733983874E-01 1.265103370E-01
 9.725837111E-01 1.253711879E-01
 9.717522264E-01 1.242320538E-01
 9.709035754E-01 1.231083125E-01
 9.700374603E-01 1.220153496E-01
 9.691535234E-01 1.210147589E-01
 9.682514668E-01 1.200911328E-01
 9.673308730E-01 1.191982925E-01
 9.663915038E-01 1.183670312E-01
 9.654329419E-01 1.175819486E-01
 9.644548297E-01 1.168738380E-01
 9.634568691E-01 1.162272990E-01
 9.624387026E-01 1.156269386E-01
 9.613999128E-01 1.151035503E-01
 9.603402019E-01 1.146417409E-01
 9.592591524E-01 1.142415032E-01
 9.581564069E-01 1.139028370E-01
 9.570315480E-01 1.136103570E-01
 9.558842778E-01 1.133486629E-01
 9.547141790E-01 1.131331548E-01
 9.535208941E-01 1.128868535E-01
 9.523039460E-01 1.126867309E-01
 9.510630965E-01 1.119016483E-01
 9.497979283E-01 1.107163280E-01
 9.485079646E-01 1.100851893E-01
 9.471927285E-01 1.097311303E-01
 9.458519220E-01 1.090076268E-01
 9.444850683E-01 1.077145487E-01
 9.430918097E-01 1.063752919E-01
 9.416716695E-01 1.052977294E-01
 9.402241707E-01 1.042971313E-01
 9.387488365E-01 1.032349616E-01
 9.372453690E-01 1.020958275E-01
 9.357131720E-01 1.010028645E-01
 9.341518283E-01 9.990990907E-02
 9.325609803E-01 9.881695360E-02
 9.309400916E-01 9.773939103E-02
 9.292888045E-01 9.664643556E-02
 9.276065230E-01 9.556887299E-02
 9.258929491E-01 9.449131042E-02
 9.241474867E-01 9.342914075E-02
 9.223697782E-01 9.235157073E-02
 9.205593467E-01 9.127400815E-02
 9.187157154E-01 9.015026689E-02
 9.168384075E-01 8.907270432E-02
 9.149270058E-01 8.804132044E-02
 9.129810929E-01 8.687139302E-02
 9.110001326E-01 8.554752916E-02
 9.089837074E-01 8.423905820E-02
 9.069313407E-01 8.297677338E-02
 9.048426151E-01 8.172988147E-02
 9.027169943E-01 8.048298210E-02
 9.005540609E-01 7.926687598E-02
 8.983533382E-01 7.803537697E-02
 8.961144090E-01 7.678847760E-02
 8.938368559E-01 7.555697858E-02
 8.915202022E-01 7.432547957E-02
 8.891639709E-01 7.309398055E-02
 8.867678642E-01 7.186247408E-02
 8.843312860E-01 7.063097507E-02
 8.818539381E-01 6.939947605E-02
 8.793354034E-01 6.816797704E-02
 8.767752051E-01 6.693647057E-02
 8.741729856E-01 6.570497155E-02
 8.715283871E-01 6.447347254E-02
 8.688409328E-01 6.322658062E-02
 8.661103249E-01 6.199507415E-02
 8.633361459E-01 6.074818224E-02
 8.605180979E-01 5.951667950E-02
 8.576557636E-01 5.826978385E-02
 8.547489047E-01 5.702289194E-02
 8.517971039E-01 5.576060340E-02
 8.488000631E-01 5.449831486E-02
 8.457575440E-01 5.323602632E-02
 8.426691890E-01 5.198913068E-02
 8.395348191E-01 5.074223503E-02
 8.363540173E-01 4.949534312E-02
 8.331267238E-01 4.823305458E-02
 8.298526406E-01 4.698615894E-02
 8.265314698E-01 4.572387040E-02
 8.231631517E-01 4.446158186E-02
 8.197475076E-01 4.319929332E-02
 8.162842989E-01 4.192161188E-02
 8.127734661E-01 4.064393044E-02
 8.092148304E-01 3.935085237E-02
 8.056083322E-01 3.804238141E-02
 8.019539118E-01 3.670312464E-02
 7.982515097E-01 3.534847498E-02
 7.945011258E-01 3.402461112E-02
 7.907026410E-01 3.266996145E-02
 7.868561745E-01 3.131530806E-02
 7.829617262E-01 2.996065840E-02
 7.790193558E-01 2.859061398E-02
 7.750291824E-01 2.720517479E-02
 7.709913254E-01 2.581973560E-02
 7.669059038E-01 2.441890351E-02
 7.627730966E-01 2.298728377E-02
 7.585930824E-01 2.155566402E-02
 7.543661594E-01 2.010865137E-02
 7.500925064E-01 1.863084920E-02
 7.457724214E-01 1.713765413E-02
 7.414062619E-01 1.562906615E-02
 7.369942665E-01 1.410508342E-02
 7.325369120E-01 1.256570779E-02
 7.280345559E-01 1.101093739E-02
 7.234875560E-01 9.425380267E-03
 7.188965082E-01 7.824429311E-03
 7.142618299E-01 6.208084058E-03
 7.095840573E-01 4.576345440E-03
 7.048637271E-01 2.913819160E-03
 7.001014352E-01 1.235899166E-03
 6.952978373E-01 -4.728084023E-04
 6.904534698E-01 -2.196909627E-03
 6.855691671E-01 -3.951798659E-03
 6.806454659E-01 -5.737474654E-03
 6.756832600E-01 -7.553938776E-03
 6.706832051E-01 -9.385796264E-03
 6.656461954E-01 -1.126383524E-02
 6.605730057E-01 -1.315726805E-02
 6.554644704E-01 -1.508148853E-02
 6.503215432E-01 -1.702110283E-02
 6.451451778E-01 -1.906847209E-02
 6.399362087E-01 -2.120820433E-02
 6.346957088E-01 -2.339411899E-02
 6.294246316E-01 -2.564160898E-02
 6.241239905E-01 -2.793527953E-02
 6.187948585E-01 -3.025973774E-02
 6.134383082E-01 -3.261498362E-02
 6.080553532E-01 -3.500101715E-02
 6.026471853E-01 -3.727929294E-02
 5.972149372E-01 -3.960375115E-02
 5.917598009E-01 -4.211293161E-02
 5.862830281E-01 -4.465290532E-02
 5.807857513E-01 -4.723905772E-02
 5.752692223E-01 -4.988678172E-02
 5.697346330E-01 -5.258069187E-02
 5.641833544E-01 -5.532078072E-02
 5.586165786E-01 -5.810705200E-02
 5.530356765E-01 -6.077017263E-02
 5.474418402E-01 -6.352565438E-02
 5.418365002E-01 -6.657361984E-02
 5.362210274E-01 -6.969855726E-02
 5.305966735E-01 -7.288506627E-02
 5.249648690E-01 -7.616393268E-02
 5.193268657E-01 -7.951977104E-02
 5.136840343E-01 -8.292179555E-02
 5.080377460E-01 -8.632382005E-02
 5.023893118E-01 -8.932559937E-02
 4.967401624E-01 -9.272762388E-02
 4.910918772E-01 -9.691472352E-02
 4.854457378E-01 -1.011941880E-01
 4.798030555E-01 -1.056275964E-01
 4.741651416E-01 -1.101995409E-01
 4.685332477E-01 -1.148176715E-01
 4.629087150E-01 -1.194204018E-01
 4.572927952E-01 -1.237460524E-01
 4.516867995E-01 -1.270249188E-01
 4.460920990E-01 -1.309657246E-01
 4.405103326E-01 -1.362303942E-01
 4.349427223E-01 -1.414180845E-01
 4.293904603E-01 -1.467751116E-01
 4.238547385E-01 -1.522399038E-01
 4.183367491E-01 -1.576892883E-01
 4.128376245E-01 -1.629847437E-01
 4.073585570E-01 -1.678030044E-01
 4.019007087E-01 -1.709125340E-01
 3.964653313E-01 -1.744685024E-01
 3.910539150E-01 -1.796100140E-01
 3.856675327E-01 -1.845360100E-01
 3.803073168E-01 -1.895235926E-01
 3.749742508E-01 -1.945419610E-01
 3.696694374E-01 -1.994833648E-01
 3.643938601E-01 -2.041168809E-01
 3.591485620E-01 -2.085040957E-01
 3.539345562E-01 -2.109671086E-01
 3.487528563E-01 -2.127681673E-01
 3.436045647E-01 -2.162625641E-01
 3.384906650E-01 -2.200186402E-01
 3.334120810E-01 -2.236361653E-01
 3.283696175E-01 -2.272229195E-01
 3.233641684E-01 -2.307173014E-01
 3.183965683E-01 -2.339192033E-01
 3.134675920E-01 -2.367362678E-01
 3.085780740E-01 -2.389067858E-01
 3.037288189E-01 -2.407694310E-01
 2.989205420E-01 -2.410926968E-01
 2.941540182E-01 -2.390915006E-01
 2.894300222E-01 -2.360589355E-01
 2.847491205E-01 -2.323028594E-01
 2.801119089E-01 -2.279310226E-01
 2.755188346E-01 -2.232051492E-01
 2.709704041E-01 -2.183714956E-01
 2.664669752E-01 -2.136610150E-01
 2.620089352E-01 -2.093199790E-01
 2.575966120E-01 -2.055023164E-01
 2.532302439E-01 -2.031162828E-01
 2.489101440E-01 -2.022388428E-01
 2.446366549E-01 -2.017000616E-01
 2.404101193E-01 -2.014845461E-01
 2.362308204E-01 -2.016692758E-01
 2.320990115E-01 -2.020848989E-01
 2.280149311E-01 -2.026082873E-01
 2.239787877E-01 -2.031316757E-01
 2.199907601E-01 -2.035627067E-01
 2.160509974E-01 -2.038551867E-01
 2.121596336E-01 -2.039013654E-01
 2.083167732E-01 -2.036088854E-01
 2.045225054E-01 -2.029623538E-01
 2.007768899E-01 -2.016538829E-01
 1.970799714E-01 -1.994525641E-01
 1.934316903E-01 -1.966663003E-01
 1.898319870E-01 -1.935567558E-01
 1.862806976E-01 -1.901393384E-01
 1.827777028E-01 -1.865064204E-01
 1.793228090E-01 -1.827503443E-01
 1.759158373E-01 -1.789326817E-01
 1.725565642E-01 -1.751612127E-01
 1.692447662E-01 -1.714513153E-01
 1.659801900E-01 -1.678953618E-01
 1.627625823E-01 -1.645241231E-01
 1.595916599E-01 -1.613991857E-01
 1.564671248E-01 -1.585821360E-01
 1.533886939E-01 -1.563038528E-01
 1.503560394E-01 -1.548568457E-01
 1.473689079E-01 -1.534406096E-01
 1.444270760E-01 -1.518396586E-01
 1.415302306E-01 -1.504696161E-01
 1.386780590E-01 -1.492073387E-01
 1.358702183E-01 -1.479912251E-01
 1.331063509E-01 -1.468366981E-01
 1.303861141E-01 -1.457283497E-01
 1.277091354E-01 -1.446661800E-01
 1.250750273E-01 -1.436501890E-01
 1.224834174E-01 -1.426803768E-01
 1.199338958E-01 -1.417259723E-01
 1.174260676E-01 -1.408177316E-01
 1.149595231E-01 -1.399402916E-01
 1.125338450E-01 -1.390782446E-01
 1.101486087E-01 -1.382315755E-01
 1.078033820E-01 -1.374003142E-01
 1.054977328E-01 -1.365690529E-01
 1.032312289E-01 -1.357223988E-01
 1.010034159E-01 -1.347064078E-01
 9.881384671E-02 -1.337520033E-01
 9.666202962E-02 -1.330746710E-01
 9.454749525E-02 -1.324897110E-01
 9.246978164E-02 -1.320278943E-01
 9.042843431E-02 -1.317046285E-01
 8.842299879E-02 -1.315352917E-01
 8.645299822E-02 -1.315198988E-01
 8.451798558E-02 -1.316430569E-01
 8.261749148E-02 -1.319201440E-01
 8.075105399E-02 -1.323511600E-01
 7.891821861E-02 -1.329361200E-01
 7.711853087E-02 -1.336904168E-01
 7.535152137E-02 -1.345832646E-01
 7.361673564E-02 -1.356454343E-01
 7.191371918E-02 -1.368923187E-01
 7.024202496E-02 -1.382931620E-01
 6.860119104E-02 -1.398787200E-01
 6.699077785E-02 -1.416489929E-01
 6.541033089E-02 -1.436040103E-01
 6.385941803E-02 -1.457437426E-01
 6.233758852E-02 -1.480835825E-01
 6.084440649E-02 -1.506389529E-01
 5.937944725E-02 -1.533944309E-01
 5.794227496E-02 -1.563346386E-01
 5.653246865E-02 -1.594903618E-01
 5.514961109E-02 -1.628154218E-01
 5.379329249E-02 -1.662944108E-01
 5.246310309E-02 -1.699427217E-01
 5.115865543E-02 -1.732677817E-01
 4.987955093E-02 -1.763927191E-01
 4.862534627E-02 -1.802411526E-01
 4.739559442E-02 -1.845975965E-01
 4.618990794E-02 -1.890617758E-01
 4.500791058E-02 -1.938030571E-01
 4.384922981E-02 -1.987752467E-01
 4.271349683E-02 -2.039475441E-01
 4.160035402E-02 -2.092891783E-01
 4.050944373E-02 -2.147231847E-01
 3.944041580E-02 -2.201879621E-01
 3.839294240E-02 -2.256219685E-01
 3.736666963E-02 -2.309482098E-01
 3.636128455E-02 -2.360897213E-01
 3.537644818E-02 -2.409695387E-01
 3.441184014E-02 -2.455107123E-01
 3.346714005E-02 -2.496670187E-01
 3.254200891E-02 -2.533769310E-01
 3.163613379E-02 -2.566711903E-01
 3.074916080E-02 -2.595652044E-01
 2.988076396E-02 -2.621667683E-01
 2.903058194E-02 -2.645989656E-01
 2.819825523E-02 -2.670465708E-01
 2.738342062E-02 -2.697866559E-01
 2.658569999E-02 -2.729116082E-01
 2.580472454E-02 -2.776374817E-01
 2.504011430E-02 -2.844261229E-01
 2.429169230E-02 -2.900140584E-01
 2.355940640E-02 -2.942781448E-01
 2.284297720E-02 -2.990040183E-01
 2.214216255E-02 -3.035297990E-01
 2.145670354E-02 -3.077630699E-01
 2.078633569E-02 -3.116423190E-01
 2.013084479E-02 -3.151674867E-01
 1.948996261E-02 -3.182924092E-01
 1.886346564E-02 -3.209709227E-01
 1.825112849E-02 -3.232030272E-01
 1.765269414E-02 -3.249579072E-01
 1.706797071E-02 -3.261740208E-01
 1.649670675E-02 -3.268513381E-01
 1.593868062E-02 -3.269591033E-01
 1.539369021E-02 -3.264818788E-01
 1.486147661E-02 -3.254197240E-01
 1.434185170E-02 -3.237572014E-01
 1.383457612E-02 -3.215250969E-01
 1.333940681E-02 -3.187542260E-01
 1.285615284E-02 -3.154599667E-01
 1.238454878E-02 -3.117192686E-01
 1.192437578E-02 -3.076245189E-01
 1.147540938E-02 -3.032834828E-01
 1.103737950E-02 -2.987885177E-01
 1.061007660E-02 -2.943397164E-01
 1.019324362E-02 -2.886594236E-01
 9.786547162E-03 -2.856268585E-01
 9.389444254E-03 -2.865350842E-01
 9.001806378E-03 -2.876280248E-01
 8.623584174E-03 -2.892597616E-01
 8.254772052E-03 -2.914918661E-01
 7.895328104E-03 -2.941395938E-01
 7.545236498E-03 -2.969104648E-01
 7.204530761E-03 -2.995581925E-01
 6.873171311E-03 -3.017902970E-01
 6.551199593E-03 -3.033142686E-01
 6.238665897E-03 -3.038530648E-01
 5.935526919E-03 -3.031449616E-01
 5.641892552E-03 -3.008666635E-01
 5.357792135E-03 -2.967565358E-01
 5.083175376E-03 -2.905374467E-01
 4.818195011E-03 -2.819323540E-01
 4.562828690E-03 -2.707564831E-01
 4.316995386E-03 -2.568251193E-01
 4.080845043E-03 -2.399843484E-01
 3.854274284E-03 -2.202187479E-01
 3.637133632E-03 -1.975591332E-01
 3.429513192E-03 -1.721132547E-01
 3.231222741E-03 -1.440812051E-01
 3.042007098E-03 -1.137708947E-01
 2.861846006E-03 -8.153636009E-02
 2.690493362E-03 -4.780862480E-02
 2.527598292E-03 -1.295714919E-02
 2.372958232E-03 2.221759595E-02
 2.226354321E-03 5.794651806E-02
 2.087388886E-03 8.805671334E-02
 1.955782995E-03 1.204297915E-01
 1.832882059E-03 1.628396064E-01
 1.718537649E-03 2.061268687E-01
 1.612004358E-03 2.488753349E-01
 1.512641786E-03 2.911158204E-01
 1.420039567E-03 3.323403299E-01
 1.333664753E-03 3.721947670E-01
 1.253001625E-03 4.103558958E-01
 1.177590457E-03 4.466697872E-01
 1.107052551E-03 4.810132682E-01
 1.041079056E-03 5.133555532E-01
 9.793153731E-04 5.438044071E-01
 9.214414749E-04 5.723906159E-01
 8.671685355E-04 5.992065668E-01
 8.162400336E-04 6.243292093E-01
 7.684506127E-04 6.478354335E-01
 7.235798985E-04 6.698639393E-01
 6.814224180E-04 6.904915571E-01
 6.417906261E-04 7.097953558E-01
 6.045130431E-04 7.278830409E-01
 5.694334977E-04 7.448161840E-01
 5.364209646E-04 7.606717348E-01
 5.053424393E-04 7.755420804E-01
 4.760721931E-04 7.894734740E-01
 4.484944220E-04 8.025427461E-01
 4.225021112E-04 8.147962093E-01
 3.979962203E-04 8.262953162E-01
 3.748851304E-04 8.370863795E-01
 3.530888062E-04 8.472154737E-01
 3.325290454E-04 8.567441702E-01
 3.131311678E-04 8.656879663E-01
 2.948256733E-04 8.740929961E-01
 2.775479225E-04 8.819899559E-01
 2.612375538E-04 8.894251585E-01
 2.458382514E-04 8.964139223E-01
 2.312974975E-04 9.029870629E-01
 2.175667032E-04 9.091753364E-01
 2.046016161E-04 9.150095582E-01
 1.923586824E-04 9.204897881E-01
 1.807971275E-04 9.256466627E-01
 1.698786800E-04 9.305111170E-01
 1.595674548E-04 9.350830317E-01
 1.498297497E-04 9.393932819E-01
 1.406338997E-04 9.434418678E-01
 1.319501753E-04 9.472595453E-01
 1.237505348E-04 9.508616328E-01
 1.160087122E-04 9.542483091E-01
 1.087005658E-04 9.574347734E-01
 1.018026742E-04 9.604365826E-01
 9.529286035E-05 9.632690549E-01
 8.915021317E-05 9.659321308E-01
 8.335502935E-05 9.684413075E-01
 7.788869698E-05 9.707965851E-01
 7.273365190E-05 9.730132818E-01
 6.787331949E-05 9.750914574E-01
 6.329201278E-05 9.770618677E-01
 5.897494339E-05 9.788936973E-01
 5.490810508E-05 9.806331992E-01
 5.107825564E-05 9.822495580E-01
 4.747289131E-05 9.837735295E-01
 4.408036693E-05 9.852051139E-01
 4.088942660E-05 9.865443707E-01
 3.788941467E-05 9.878066778E-01
 3.507024303E-05 9.889919758E-01
 3.242235471E-05 9.900849462E-01
 2.993670751E-05 9.911163449E-01
 2.760472307E-05 9.920861721E-01
 2.541827780E-05 9.929789901E-01
 2.336967009E-05 9.938102365E-01
 2.145160215E-05 9.945953488E-01
 1.965715273E-05 9.953188300E-01
 1.797975892E-05 9.959961772E-01
 1.641319432E-05 9.966273308E-01
 1.495155902E-05 9.971968532E-01
 1.358925056E-05 9.977356791E-01
 1.232095474E-05 9.982282519E-01
 1.114163024E-05 9.986900687E-01
 1.004652768E-05 9.991056919E-01
 9.031105947E-06 9.994905591E-01
 8.091044037E-06 9.998446107E-01
 7.222245131E-06 1.000167847E+00
 6.420820682E-06 1.000445008E+00
 5.683079507E-06 1.000706673E+00
 5.005518233E-06 1.000952959E+00
 4.384811291E-06 1.001153111E+00
 3.817801371E-06 1.001337767E+00
 3.301492143E-06 1.001507163E+00
 2.833038479E-06 1.001645684E+00
 2.409740318E-06 1.001768827E+00
 2.029034022E-06 1.001876593E+00
 1.688486009E-06 1.001968980E+00
 1.385786504E-06 1.002045870E+00
 1.118742830E-06 1.002092123E+00
 8.852738347E-07 1.002138257E+00
 6.834043802E-07 1.002169013E+00
 5.112596568E-07 1.002169013E+00
 3.670607214E-07 1.002169013E+00
 2.491193243E-07 1.002169013E+00
 1.558336322E-07 1.002138257E+00
 8.568387244E-08 1.002107501E+00
 3.722830400E-08 1.002076745E+00
 9.099365705E-09 1.001999736E+00
 0.000000000E+00 1.001891971E+00
 9.136088330E-09 1.001861215E+00
 3.753262234E-08 1.001814961E+00
 8.674717833E-08 1.001722693E+00
 1.584429299E-07 1.001630306E+00
 2.543956725E-07 1.001507163E+00
 3.765014753E-07 1.001384020E+00
 5.267846177E-07 1.001245499E+00
 7.074062296E-07 1.001076102E+00
 9.206736991E-07 1.000906825E+00
 1.169050279E-06 1.000706673E+00
 1.455165943E-06 1.000491142E+00
 1.781828360E-06 1.000260234E+00
 2.152034995E-06 9.999985695E-01
 2.568986474E-06 9.997214675E-01
 3.036099770E-06 9.994136095E-01
 3.557023547E-06 9.990903139E-01
 4.135653398E-06 9.987362623E-01
 4.776150035E-06 9.983513951E-01
 5.482955657E-06 9.979203939E-01
 6.260815098E-06 9.974739552E-01
 7.114794244E-06 9.969967604E-01
 8.050305951E-06 9.964733720E-01
 9.073130968E-06 9.959037900E-01
 1.018944386E-05 9.953034520E-01
 1.140585937E-05 9.946569204E-01
 1.272939062E-05 9.939488173E-01
 1.416748910E-05 9.932098985E-01
 1.572817018E-05 9.924094081E-01
 1.742000495E-05 9.915627837E-01
 1.925214201E-05 9.906391501E-01
 2.123435843E-05 9.896693230E-01
 2.337710430E-05 9.886225462E-01
 2.569153912E-05 9.874988198E-01
 2.818959183E-05 9.863134623E-01
 3.088400626E-05 9.850512147E-01
 3.378840120E-05 9.836965203E-01
 3.691733582E-05 9.822495580E-01
 4.028635522E-05 9.807101488E-01
 4.391208131E-05 9.790630341E-01
 4.781228199E-05 9.773235321E-01
 5.200590749E-05 9.754608870E-01
 5.651255560E-05 9.734750986E-01
 6.135369767E-05 9.713661671E-01
 6.655229663E-05 9.691186547E-01
 7.213283970E-05 9.667326212E-01
 7.812149124E-05 9.641926289E-01
 8.454616182E-05 9.614987373E-01
 9.143664647E-05 9.586355090E-01
 9.882472659E-05 9.555875659E-01
 1.067443154E-04 9.523548484E-01
 1.152315599E-04 9.489374161E-01
 1.243247098E-04 9.452891350E-01
 1.340622839E-04 9.414252639E-01
 1.444871887E-04 9.373305440E-01
 1.556452189E-04 9.329894781E-01
 1.675850508E-04 9.284021854E-01
 1.803584455E-04 9.235377312E-01
 1.940203510E-04 9.183962345E-01
 2.086290624E-04 9.129468203E-01
 2.242464543E-04 9.072049260E-01
 2.409349836E-04 9.011397958E-01
 2.587575873E-04 8.947359920E-01
 2.777856134E-04 8.880089521E-01
 2.980943536E-04 8.809124231E-01
 3.197632032E-04 8.734464049E-01
 3.428756027E-04 8.656263947E-01
 3.675194166E-04 8.574061394E-01
 3.937832080E-04 8.488010168E-01
 4.217478563E-04 8.397956491E-01
 4.515093169E-04 8.304054737E-01
 4.831687256E-04 8.205996752E-01
 5.168315256E-04 8.104089499E-01
 5.526072346E-04 7.998180389E-01
 5.906074657E-04 7.888423204E-01
 6.309231394E-04 7.774662971E-01
 6.736622890E-04 7.657362819E-01
 7.189432508E-04 7.536675930E-01
 7.668873877E-04 7.412447929E-01
 8.176192059E-04 7.285141349E-01
 8.712525596E-04 7.154910564E-01
 9.278748767E-04 7.021908164E-01
 9.876071708E-04 6.886751056E-01
 1.050574356E-03 6.749592423E-01
 1.116902800E-03 6.610587239E-01
 1.186710899E-03 6.470350027E-01
 1.260070479E-03 6.329035163E-01
 1.337093418E-03 6.187258363E-01
 1.417899854E-03 6.045174003E-01
 1.502609928E-03 5.903551579E-01
 1.591327600E-03 5.762390494E-01
 1.684108633E-03 5.622153282E-01
 1.781058498E-03 5.482686162E-01
 1.882287790E-03 5.341525078E-01
 1.987906406E-03 5.205598474E-01
 2.097738907E-03 5.083371997E-01
 2.211534185E-03 4.954372346E-01
 2.329434268E-03 4.812133908E-01
 2.451587468E-03 4.666816592E-01
 2.578142099E-03 4.517035484E-01
 2.709213877E-03 4.363713562E-01
 2.844951116E-03 4.207158983E-01
 2.985515632E-03 4.047833681E-01
 3.131073900E-03 3.885891140E-01
 3.281754674E-03 3.721639812E-01
 3.437707433E-03 3.555695117E-01
 3.599108662E-03 3.388364911E-01
 3.766138339E-03 3.219649196E-01
 3.938932437E-03 3.050163984E-01
 4.117649049E-03 2.880216837E-01
 4.302477930E-03 2.709961832E-01
 4.493609536E-03 2.539860606E-01
 4.691177048E-03 2.370067537E-01
 4.895357881E-03 2.201197892E-01
 5.106354132E-03 2.033251971E-01
 5.324353930E-03 1.866845489E-01
 5.549492314E-03 1.702132225E-01
 5.781971384E-03 1.539574116E-01
 6.022005808E-03 1.379479021E-01
 6.269752979E-03 1.222154722E-01
 6.525381934E-03 1.068217084E-01
 6.789113861E-03 9.178200364E-02
 7.061153185E-03 7.714253664E-02
 7.341639139E-03 6.294948608E-02
 7.630790118E-03 4.926443473E-02
 7.928836159E-03 3.613355756E-02
 8.235924877E-03 2.361842804E-02
 8.552256972E-03 1.178062614E-02
 8.878069930E-03 6.663299864E-04
 9.213547222E-03 -9.755246341E-03
 9.558859281E-03 -1.989973523E-02
 9.914254770E-03 -2.896666154E-02
 1.027964428E-02 -3.452380747E-02
 1.065458171E-02 -4.052737728E-02
 1.103932597E-02 -4.914788157E-02
 1.143415272E-02 -5.789154023E-02
 1.183930133E-02 -6.702003628E-02
 1.225505583E-02 -7.624090463E-02
 1.268169191E-02 -8.550794423E-02
 1.311944425E-02 -9.468262643E-02
 1.356859971E-02 -1.037033722E-01
 1.402942371E-02 -1.124778166E-01
 1.450214814E-02 -1.209443882E-01
 1.498705801E-02 -1.290569007E-01
 1.548440382E-02 -1.367691755E-01
 1.599442028E-02 -1.440504193E-01
 1.651739143E-02 -1.508698612E-01
 1.705354452E-02 -1.572274864E-01
 1.760313101E-02 -1.630925089E-01
 1.816642471E-02 -1.684649289E-01
 1.874364167E-02 -1.733447462E-01
 1.933504827E-02 -1.777319759E-01
 1.994090714E-02 -1.815958023E-01
 2.056143992E-02 -1.849362552E-01
 2.119692415E-02 -1.877533048E-01
 2.184761129E-02 -1.900008023E-01
 2.251373976E-02 -1.917095035E-01
 2.319559827E-02 -1.929256171E-01
 2.389342897E-02 -1.941109300E-01
 2.460749634E-02 -1.958350390E-01
 2.533790283E-02 -1.925253719E-01
 2.608367801E-02 -1.891849339E-01
 2.684505098E-02 -1.921559274E-01
 2.762253582E-02 -1.971589029E-01
 2.841666900E-02 -2.038859725E-01
 2.922801860E-02 -2.117829770E-01
 3.005714715E-02 -2.204804420E-01
 3.090462647E-02 -2.295473814E-01
 3.177102283E-02 -2.386143059E-01
 3.265686706E-02 -2.473887503E-01
 3.356269374E-02 -2.555782199E-01
 3.448896855E-02 -2.630134225E-01
 3.543617576E-02 -2.695557475E-01
 3.640473634E-02 -2.750975192E-01
 3.739504889E-02 -2.796540558E-01
 3.840752691E-02 -2.832100391E-01
 3.944249451E-02 -2.858269811E-01
 4.050034285E-02 -2.875664532E-01
 4.158139601E-02 -2.884900868E-01
 4.268599302E-02 -2.886748016E-01
 4.381449521E-02 -2.881976068E-01
 4.496720061E-02 -2.871354222E-01
 4.614447430E-02 -2.855344713E-01
 4.734666646E-02 -2.834871113E-01
 4.857409373E-02 -2.813012004E-01
 4.982713982E-02 -2.784995437E-01
 5.110596120E-02 -2.743586004E-01
 5.241059884E-02 -2.709258199E-01
 5.374143273E-02 -2.689861953E-01
 5.509884655E-02 -2.675237954E-01
 5.648323894E-02 -2.666771412E-01
 5.789502338E-02 -2.663384676E-01
 5.933462828E-02 -2.664923966E-01
 6.080247462E-02 -2.670927644E-01
 6.229900941E-02 -2.681241333E-01
 6.382468343E-02 -2.695557475E-01
 6.537993252E-02 -2.713568211E-01
 6.696522981E-02 -2.735119462E-01
 6.858104467E-02 -2.760211527E-01
 7.022784650E-02 -2.788689733E-01
 7.190610468E-02 -2.820400894E-01
 7.361631095E-02 -2.855190933E-01
 7.535895705E-02 -2.893213630E-01
 7.713454217E-02 -2.934160829E-01
 7.894356549E-02 -2.977879047E-01
 8.078654110E-02 -3.024676144E-01
 8.266399056E-02 -3.073936403E-01
 8.457645029E-02 -3.125813305E-01
 8.652444184E-02 -3.179999292E-01
 8.850853145E-02 -3.236032426E-01
 9.052927792E-02 -3.293297291E-01
 9.258724749E-02 -3.351024091E-01
 9.468306601E-02 -3.407827020E-01
 9.681734443E-02 -3.462628722E-01
 9.899071604E-02 -3.515429497E-01
 1.012038812E-01 -3.556838632E-01
 1.034572199E-01 -3.584701419E-01
 1.057511643E-01 -3.606098592E-01
 1.080861017E-01 -3.621646166E-01
 1.104624495E-01 -3.631806076E-01
 1.128805801E-01 -3.637194037E-01
 1.153408885E-01 -3.638425469E-01
 1.178437248E-01 -3.635962605E-01
 1.203894615E-01 -3.630420864E-01
 1.229784340E-01 -3.622415960E-01
 1.256109774E-01 -3.612410128E-01
 1.282874197E-01 -3.601172566E-01
 1.310080588E-01 -3.589319289E-01
 1.337732077E-01 -3.578235805E-01
 1.365831196E-01 -3.568691611E-01
 1.394380629E-01 -3.562534153E-01
 1.423382759E-01 -3.560841084E-01
 1.452840120E-01 -3.563611805E-01
 1.482754499E-01 -3.568229973E-01
 1.513128877E-01 -3.601634502E-01
 1.543972790E-01 -3.643351495E-01
 1.575290263E-01 -3.661977947E-01
 1.607083827E-01 -3.675062656E-01
 1.639355719E-01 -3.683837056E-01
 1.672107875E-01 -3.689840734E-01
 1.705342084E-01 -3.693535030E-01
 1.739060134E-01 -3.695382476E-01
 1.773263365E-01 -3.696151972E-01
 1.807952970E-01 -3.696613908E-01
 1.843129992E-01 -3.697075844E-01
 1.878795326E-01 -3.698768914E-01
 1.914949417E-01 -3.701847792E-01
 1.951592714E-01 -3.705696166E-01
 1.988725364E-01 -3.712161481E-01
 2.026348412E-01 -3.732635379E-01
 2.064464837E-01 -3.749876320E-01
 2.103074640E-01 -3.752801120E-01
 2.142176777E-01 -3.753263056E-01
 2.181770205E-01 -3.750799894E-01
 2.221853733E-01 -3.746643662E-01
 2.262425721E-01 -3.741409779E-01
 2.303484231E-01 -3.736021817E-01
 2.345027179E-01 -3.730942011E-01
 2.387052178E-01 -3.727401495E-01
 2.429556400E-01 -3.725400269E-01
 2.472537011E-01 -3.723706901E-01
 2.515990734E-01 -3.732943237E-01
 2.559916377E-01 -3.746643662E-01
 2.604311109E-01 -3.751569688E-01
 2.649170458E-01 -3.754032552E-01
 2.694490254E-01 -3.755264282E-01
 2.740266323E-01 -3.755879998E-01
 2.786493599E-01 -3.756341636E-01
 2.833167017E-01 -3.756957352E-01
 2.880280614E-01 -3.758342862E-01
 2.927829027E-01 -3.760806024E-01
 2.975806296E-01 -3.764500320E-01
 3.024205267E-01 -3.770811856E-01
 3.073019981E-01 -3.780971766E-01
 3.122243881E-01 -3.792978823E-01
 3.171869516E-01 -3.805909753E-01
 3.221889734E-01 -3.819456100E-01
 3.272297084E-01 -3.833002746E-01
 3.323082924E-01 -3.846087456E-01
 3.374239206E-01 -3.857940435E-01
 3.425757289E-01 -3.869177997E-01
 3.477627635E-01 -3.879183829E-01
 3.529841304E-01 -3.882108629E-01
 3.582387567E-01 -3.884879649E-01
 3.635256588E-01 -3.893500268E-01
 3.688438237E-01 -3.902274668E-01
 3.741921782E-01 -3.910741210E-01
 3.795696199E-01 -3.918130100E-01
 3.849750459E-01 -3.923825920E-01
 3.904072940E-01 -3.927212358E-01
 3.958651721E-01 -3.928290009E-01
 4.013474882E-01 -3.924749494E-01
 4.068529904E-01 -3.915975094E-01
 4.123803973E-01 -3.903968036E-01
 4.179284573E-01 -3.889805675E-01
 4.234958887E-01 -3.873796165E-01
 4.290813506E-01 -3.856247365E-01
 4.346835315E-01 -3.837466836E-01
 4.403010905E-01 -3.817454875E-01
 4.459326863E-01 -3.795134127E-01
 4.515769482E-01 -3.776969314E-01
 4.572324455E-01 -3.758342862E-01
 4.628977478E-01 -3.730787933E-01
 4.685714841E-01 -3.699692786E-01
 4.742522538E-01 -3.666596115E-01
 4.799386859E-01 -3.632729948E-01
 4.856293797E-01 -3.598555624E-01
 4.913229942E-01 -3.564689457E-01
 4.970181286E-01 -3.530669212E-01
 5.027133822E-01 -3.502960503E-01
 5.084072948E-01 -3.477098942E-01
 5.140982866E-01 -3.446157277E-01
 5.197851062E-01 -3.414292336E-01
 5.254663229E-01 -3.381503522E-01
 5.311404467E-01 -3.348253071E-01
 5.368062258E-01 -3.314694762E-01
 5.424621701E-01 -3.280828297E-01
 5.481070280E-01 -3.246808350E-01
 5.537393093E-01 -3.214327395E-01
 5.593577027E-01 -3.181230724E-01
 5.649608374E-01 -3.146286905E-01
 5.705474019E-01 -3.110573292E-01
 5.761160851E-01 -3.074398041E-01
 5.816655755E-01 -3.037607074E-01
 5.871946812E-01 -3.000507951E-01
 5.927020907E-01 -2.962639332E-01
 5.981865525E-01 -2.924462855E-01
 6.036469936E-01 -2.887363732E-01
 6.090819836E-01 -2.848879397E-01
 6.144904494E-01 -2.808085978E-01
 6.198713183E-01 -2.766522765E-01
 6.252234578E-01 -2.724343836E-01
 6.305457950E-01 -2.681857049E-01
 6.358372569E-01 -2.639062405E-01
 6.410969496E-01 -2.596267760E-01
 6.463238001E-01 -2.552549541E-01
 6.515168548E-01 -2.510986328E-01
 6.566750407E-01 -2.469885051E-01
 6.617975235E-01 -2.425704896E-01
 6.668834090E-01 -2.380293310E-01
 6.719318032E-01 -2.334419936E-01
 6.769419909E-01 -2.288238704E-01
 6.819131970E-01 -2.242057323E-01
 6.868446469E-01 -2.195876092E-01
 6.917357445E-01 -2.150002718E-01
 6.965857744E-01 -2.103513479E-01
 7.013940811E-01 -2.059641331E-01
 7.061598897E-01 -2.016692758E-01
 7.108826041E-01 -1.970973313E-01
 7.155616879E-01 -1.924330145E-01
 7.201966643E-01 -1.877225190E-01
 7.247869968E-01 -1.830120385E-01
 7.293322682E-01 -1.783015430E-01
 7.338320613E-01 -1.736218333E-01
 7.382860184E-01 -1.689575315E-01
 7.426938415E-01 -1.643393934E-01
 7.470550537E-01 -1.596289128E-01
 7.513694763E-01 -1.553032547E-01
 7.556365132E-01 -1.510545909E-01
 7.598559260E-01 -1.463133097E-01
 7.640274763E-01 -1.414180845E-01
 7.681511045E-01 -1.364920884E-01
 7.722266912E-01 -1.315506846E-01
 7.762541771E-01 -1.266400814E-01
 7.802335024E-01 -1.217756495E-01
 7.841645479E-01 -1.170035824E-01
 7.880474329E-01 -1.123392731E-01
 7.918820977E-01 -1.078135073E-01
 7.956685424E-01 -1.033185273E-01
 7.994068861E-01 -9.902366996E-02
 8.030970097E-01 -9.525220096E-02
 8.067386746E-01 -9.137296677E-02
 8.103320599E-01 -8.715508133E-02
 8.138772249E-01 -8.295258135E-02
 8.173744082E-01 -7.875008881E-02
 8.208237290E-01 -7.457837462E-02
 8.242253661E-01 -7.045284659E-02
 8.275795579E-01 -6.638889760E-02
 8.308865428E-01 -6.238651648E-02
 8.341464400E-01 -5.846110731E-02