# CFD data extracted (using Tecplot) by interpolating from original grid onto fixed set of points
# SA model
VARIABLES = "X","Y","u/Uref"
ZONE T="CFL3D, x=1.01"
 1.009999990E+00 -2.000000000E+01 9.993984103E-01
 1.009999990E+00 -1.935783958E+01 9.993738532E-01
 1.009999990E+00 -1.873642540E+01 9.993582368E-01
 1.009999990E+00 -1.813489723E+01 9.993380308E-01
 1.009999990E+00 -1.755247307E+01 9.993173480E-01
 1.009999990E+00 -1.698842812E+01 9.992959499E-01
 1.009999990E+00 -1.644208908E+01 9.992740750E-01
 1.009999990E+00 -1.591282177E+01 9.992514253E-01
 1.009999990E+00 -1.540002155E+01 9.992282391E-01
 1.009999990E+00 -1.490311527E+01 9.992042184E-01
 1.009999990E+00 -1.442155170E+01 9.991796613E-01
 1.009999990E+00 -1.395480156E+01 9.991542697E-01
 1.009999990E+00 -1.350235271E+01 9.991281629E-01
 1.009999990E+00 -1.306371021E+01 9.991013408E-01
 1.009999990E+00 -1.263839531E+01 9.990736842E-01
 1.009999990E+00 -1.222593880E+01 9.990451932E-01
 1.009999990E+00 -1.182589436E+01 9.990159273E-01
 1.009999990E+00 -1.143781471E+01 9.989857674E-01
 1.009999990E+00 -1.106141567E+01 9.989545941E-01
 1.009999990E+00 -1.069646168E+01 9.989227057E-01
 1.009999990E+00 -1.034272861E+01 9.988897443E-01
 1.009999990E+00 -9.999948502E+00 9.988560677E-01
 1.009999990E+00 -9.667881966E+00 9.988214374E-01
 1.009999990E+00 -9.346258163E+00 9.987857342E-01
 1.009999990E+00 -9.034824371E+00 9.987493753E-01
 1.009999990E+00 -8.733310699E+00 9.987118840E-01
 1.009999990E+00 -8.441459656E+00 9.986734986E-01
 1.009999990E+00 -8.159008026E+00 9.986342192E-01
 1.009999990E+00 -7.885692596E+00 9.985940456E-01
 1.009999990E+00 -7.621260166E+00 9.985528588E-01
 1.009999990E+00 -7.365450859E+00 9.985108376E-01
 1.009999990E+00 -7.118018627E+00 9.984678030E-01
 1.009999990E+00 -6.878712177E+00 9.984238744E-01
 1.009999990E+00 -6.647291660E+00 9.983791113E-01
 1.009999990E+00 -6.423519135E+00 9.983334541E-01
 1.009999990E+00 -6.207160950E+00 9.982869029E-01
 1.009999990E+00 -5.997991562E+00 9.982394576E-01
 1.009999990E+00 -5.795789719E+00 9.981911778E-01
 1.009999990E+00 -5.600339890E+00 9.981421828E-01
 1.009999990E+00 -5.411433220E+00 9.980922937E-01
 1.009999990E+00 -5.228827953E+00 9.980416894E-01
 1.009999990E+00 -5.052223682E+00 9.979904294E-01
 1.009999990E+00 -4.881423950E+00 9.979383349E-01
 1.009999990E+00 -4.716265202E+00 9.978857636E-01
 1.009999990E+00 -4.556583405E+00 9.978324771E-01
 1.009999990E+00 -4.402204514E+00 9.977786541E-01
 1.009999990E+00 -4.252981186E+00 9.977243543E-01
 1.009999990E+00 -4.108750820E+00 9.976696372E-01
 1.009999990E+00 -3.969357491E+00 9.976145029E-01
 1.009999990E+00 -3.834659100E+00 9.975591302E-01
 1.009999990E+00 -3.704500675E+00 9.975034595E-01
 1.009999990E+00 -3.578741312E+00 9.974477887E-01
 1.009999990E+00 -3.457240820E+00 9.973919392E-01
 1.009999990E+00 -3.339855671E+00 9.973362088E-01
 1.009999990E+00 -3.226454258E+00 9.972805381E-01
 1.009999990E+00 -3.116902113E+00 9.972250462E-01
 1.009999990E+00 -3.011067867E+00 9.971698523E-01
 1.009999990E+00 -2.908826351E+00 9.971150160E-01
 1.009999990E+00 -2.810053110E+00 9.970605969E-01
 1.009999990E+00 -2.714627981E+00 9.970065951E-01
 1.009999990E+00 -2.622434855E+00 9.969531894E-01
 1.009999990E+00 -2.533361197E+00 9.969003797E-01
 1.009999990E+00 -2.447297573E+00 9.968482256E-01
 1.009999990E+00 -2.364140272E+00 9.967967868E-01
 1.009999990E+00 -2.283789158E+00 9.967460036E-01
 1.009999990E+00 -2.206146479E+00 9.966959357E-01
 1.009999990E+00 -2.131122589E+00 9.966465831E-01
 1.009999990E+00 -2.058630943E+00 9.965978265E-01
 1.009999990E+00 -1.988584638E+00 9.965497851E-01
 1.009999990E+00 -1.920913339E+00 9.965022206E-01
 1.009999990E+00 -1.855541468E+00 9.964549541E-01
 1.009999990E+00 -1.792391539E+00 9.964078665E-01
 1.009999990E+00 -1.731388450E+00 9.963607192E-01
 1.009999990E+00 -1.672460914E+00 9.963135123E-01
 1.009999990E+00 -1.615538955E+00 9.962657094E-01
 1.009999990E+00 -1.560554504E+00 9.962171912E-01
 1.009999990E+00 -1.507442951E+00 9.961674809E-01
 1.009999990E+00 -1.456141472E+00 9.961160421E-01
 1.009999990E+00 -1.406588554E+00 9.960625768E-01
 1.009999990E+00 -1.358725309E+00 9.960065484E-01
 1.009999990E+00 -1.312495232E+00 9.959472418E-01
 1.009999990E+00 -1.267842770E+00 9.958842397E-01
 1.009999990E+00 -1.224714160E+00 9.958167672E-01
 1.009999990E+00 -1.183058500E+00 9.957441092E-01
 1.009999990E+00 -1.142825365E+00 9.956656098E-01
 1.009999990E+00 -1.103965998E+00 9.955804944E-01
 1.009999990E+00 -1.066433787E+00 9.954879284E-01
 1.009999990E+00 -1.030183315E+00 9.953871965E-01
 1.009999990E+00 -9.951701760E-01 9.952773452E-01
 1.009999990E+00 -9.613518715E-01 9.951577187E-01
 1.009999990E+00 -9.286869764E-01 9.950272441E-01
 1.009999990E+00 -8.971354365E-01 9.948852062E-01
 1.009999990E+00 -8.666585088E-01 9.947309494E-01
 1.009999990E+00 -8.372187614E-01 9.945634604E-01
 1.009999990E+00 -8.087800145E-01 9.943820834E-01
 1.009999990E+00 -7.813075185E-01 9.941861033E-01
 1.009999990E+00 -7.547675371E-01 9.939748645E-01
 1.009999990E+00 -7.291278839E-01 9.937476516E-01
 1.009999990E+00 -7.043573856E-01 9.935039878E-01
 1.009999990E+00 -6.804260612E-01 9.932433367E-01
 1.009999990E+00 -6.573053598E-01 9.929652214E-01
 1.009999990E+00 -6.349676251E-01 9.926693439E-01
 1.009999990E+00 -6.133861542E-01 9.923555851E-01
 1.009999990E+00 -5.925353169E-01 9.920241833E-01
 1.009999990E+00 -5.723937154E-01 9.916741252E-01
 1.009999990E+00 -5.529382825E-01 9.913044572E-01
 1.009999990E+00 -5.341456532E-01 9.909158945E-01
 1.009999990E+00 -5.159932971E-01 9.905092716E-01
 1.009999990E+00 -4.984593987E-01 9.900847077E-01
 1.009999990E+00 -4.815229774E-01 9.896423221E-01
 1.009999990E+00 -4.651636481E-01 9.891822338E-01
 1.009999990E+00 -4.493618011E-01 9.887045622E-01
 1.009999990E+00 -4.340984523E-01 9.882097840E-01
 1.009999990E+00 -4.193552732E-01 9.876982570E-01
 1.009999990E+00 -4.051145911E-01 9.871704578E-01
 1.009999990E+00 -3.913592696E-01 9.866268635E-01
 1.009999990E+00 -3.780727983E-01 9.860680103E-01
 1.009999990E+00 -3.652392030E-01 9.854943752E-01
 1.009999990E+00 -3.528430760E-01 9.849066734E-01
 1.009999990E+00 -3.408695161E-01 9.843053818E-01
 1.009999990E+00 -3.293041289E-01 9.836910963E-01
 1.009999990E+00 -3.181329966E-01 9.830643535E-01
 1.009999990E+00 -3.073426485E-01 9.824258685E-01
 1.009999990E+00 -2.969201505E-01 9.817761779E-01
 1.009999990E+00 -2.868529260E-01 9.811158180E-01
 1.009999990E+00 -2.771288455E-01 9.804455042E-01
 1.009999990E+00 -2.677361369E-01 9.797657132E-01
 1.009999990E+00 -2.586635351E-01 9.790771008E-01
 1.009999990E+00 -2.499000579E-01 9.783800840E-01
 1.009999990E+00 -2.414351106E-01 9.776753187E-01
 1.009999990E+00 -2.332584411E-01 9.769633412E-01
 1.009999990E+00 -2.253601849E-01 9.762446284E-01
 1.009999990E+00 -2.177307606E-01 9.755196571E-01
 1.009999990E+00 -2.103609294E-01 9.747889042E-01
 1.009999990E+00 -2.032417506E-01 9.740528464E-01
 1.009999990E+00 -1.963646263E-01 9.733119011E-01
 1.009999990E+00 -1.897211969E-01 9.725666046E-01
 1.009999990E+00 -1.833034307E-01 9.718171954E-01
 1.009999990E+00 -1.771035492E-01 9.710642099E-01
 1.009999990E+00 -1.711140722E-01 9.703078866E-01
 1.009999990E+00 -1.653277576E-01 9.695487022E-01
 1.009999990E+00 -1.597376317E-01 9.687868953E-01
 1.009999990E+00 -1.543369889E-01 9.680228829E-01
 1.009999990E+00 -1.491193026E-01 9.672569036E-01
 1.009999990E+00 -1.440783441E-01 9.664892554E-01
 1.009999990E+00 -1.392080635E-01 9.657201767E-01
 1.009999990E+00 -1.345026344E-01 9.649500847E-01
 1.009999990E+00 -1.299564689E-01 9.641790986E-01
 1.009999990E+00 -1.255641431E-01 9.634077549E-01
 1.009999990E+00 -1.213204339E-01 9.626357555E-01
 1.009999990E+00 -1.172202975E-01 9.618644714E-01
 1.009999990E+00 -1.132588461E-01 9.610943198E-01
 1.009999990E+00 -1.094313934E-01 9.603216052E-01
 1.009999990E+00 -1.057334840E-01 9.595504403E-01
 1.009999990E+00 -1.021610349E-01 9.587802887E-01
 1.009999990E+00 -9.870979190E-02 9.580103159E-01
 1.009999990E+00 -9.537564218E-02 9.572417140E-01
 1.009999990E+00 -9.215459973E-02 9.564747214E-01
 1.009999990E+00 -8.904282004E-02 9.557093978E-01
 1.009999990E+00 -8.603659272E-02 9.549456835E-01
 1.009999990E+00 -8.313232660E-02 9.541839957E-01
 1.009999990E+00 -8.032655716E-02 9.534242749E-01
 1.009999990E+00 -7.761594653E-02 9.526665211E-01
 1.009999990E+00 -7.499725372E-02 9.519110322E-01
 1.009999990E+00 -7.246736437E-02 9.511576891E-01
 1.009999990E+00 -7.002326101E-02 9.504066706E-01
 1.009999990E+00 -6.766202301E-02 9.496582747E-01
 1.009999990E+00 -6.538084894E-02 9.489123225E-01
 1.009999990E+00 -6.317700446E-02 9.481692910E-01
 1.009999990E+00 -6.104788184E-02 9.474290609E-01
 1.009999990E+00 -5.899093673E-02 9.466916919E-01
 1.009999990E+00 -5.700372905E-02 9.459574223E-01
 1.009999990E+00 -5.508388579E-02 9.452261329E-01
 1.009999990E+00 -5.322912708E-02 9.444983006E-01
 1.009999990E+00 -5.143724382E-02 9.437736273E-01
 1.009999990E+00 -4.970610887E-02 9.430523515E-01
 1.009999990E+00 -4.803365469E-02 9.423345923E-01
 1.009999990E+00 -4.641790316E-02 9.416204691E-01
 1.009999990E+00 -4.485693574E-02 9.409099817E-01
 1.009999990E+00 -4.334890097E-02 9.402033687E-01
 1.009999990E+00 -4.189200699E-02 9.395007491E-01
 1.009999990E+00 -4.048452526E-02 9.388020039E-01
 1.009999990E+00 -3.912478313E-02 9.381076694E-01
 1.009999990E+00 -3.781116754E-02 9.374173284E-01
 1.009999990E+00 -3.654212132E-02 9.367316365E-01
 1.009999990E+00 -3.531615436E-02 9.360501170E-01
 1.009999990E+00 -3.413181379E-02 9.353736043E-01
 1.009999990E+00 -3.298769146E-02 9.347015619E-01
 1.009999990E+00 -3.188243136E-02 9.340345860E-01
 1.009999990E+00 -3.081471846E-02 9.333721995E-01
 1.009999990E+00 -2.978328243E-02 9.327152967E-01
 1.009999990E+00 -2.878691442E-02 9.320657253E-01
 1.009999990E+00 -2.782441489E-02 9.314233661E-01
 1.009999990E+00 -2.689462155E-02 9.307463765E-01
 1.009999990E+00 -2.599640377E-02 9.298784137E-01
 1.009999990E+00 -2.512866817E-02 9.285436273E-01
 1.009999990E+00 -2.429035865E-02 9.264625311E-01
 1.009999990E+00 -2.348043397E-02 9.234976172E-01
 1.009999990E+00 -2.269789018E-02 9.196391702E-01
 1.009999990E+00 -2.194175869E-02 9.149764180E-01
 1.009999990E+00 -2.121111006E-02 9.096199274E-01
 1.009999990E+00 -2.050504647E-02 9.036827683E-01
 1.009999990E+00 -1.982271671E-02 8.972755075E-01
 1.009999990E+00 -1.916330121E-02 8.904821277E-01
 1.009999990E+00 -1.852601953E-02 8.833881617E-01
 1.009999990E+00 -1.791011542E-02 8.760618567E-01
 1.009999990E+00 -1.731486619E-02 8.685574532E-01
 1.009999990E+00 -1.673957519E-02 8.609284759E-01
 1.009999990E+00 -1.618356816E-02 8.532167077E-01
 1.009999990E+00 -1.564619876E-02 8.454534411E-01
 1.009999990E+00 -1.512684394E-02 8.376716971E-01
 1.009999990E+00 -1.462490298E-02 8.298975229E-01
 1.009999990E+00 -1.413979195E-02 8.221489191E-01
 1.009999990E+00 -1.367094647E-02 8.144431710E-01
 1.009999990E+00 -1.321781985E-02 8.067967892E-01
 1.009999990E+00 -1.277988404E-02 7.992213964E-01
 1.009999990E+00 -1.235662960E-02 7.917250991E-01
 1.009999990E+00 -1.194756292E-02 7.843154669E-01
 1.009999990E+00 -1.155220717E-02 7.770001292E-01
 1.009999990E+00 -1.117010135E-02 7.697848082E-01
 1.009999990E+00 -1.080079935E-02 7.626720071E-01
 1.009999990E+00 -1.044387184E-02 7.556638122E-01
 1.009999990E+00 -1.009890065E-02 7.487624288E-01
 1.009999990E+00 -9.765485302E-03 7.419698238E-01
 1.009999990E+00 -9.443235584E-03 7.352874875E-01
 1.009999990E+00 -9.131776169E-03 7.287145257E-01
 1.009999990E+00 -8.830745704E-03 7.222504616E-01
 1.009999990E+00 -8.539792150E-03 7.158938646E-01
 1.009999990E+00 -8.258575574E-03 7.096441984E-01
 1.009999990E+00 -7.986768149E-03 7.035004497E-01
 1.009999990E+00 -7.724053692E-03 6.974621415E-01
 1.009999990E+00 -7.470124401E-03 6.915262938E-01
 1.009999990E+00 -7.224685047E-03 6.856910586E-01
 1.009999990E+00 -6.987449713E-03 6.799544692E-01
 1.009999990E+00 -6.758141331E-03 6.743139625E-01
 1.009999990E+00 -6.536493078E-03 6.687672138E-01
 1.009999990E+00 -6.322246511E-03 6.633121967E-01
 1.009999990E+00 -6.115152966E-03 6.579469442E-01
 1.009999990E+00 -5.914971232E-03 6.526691914E-01
 1.009999990E+00 -5.721468013E-03 6.474758983E-01
 1.009999990E+00 -5.534418393E-03 6.423648596E-01
 1.009999990E+00 -5.353605375E-03 6.373334527E-01
 1.009999990E+00 -5.178818014E-03 6.323791742E-01
 1.009999990E+00 -5.009854678E-03 6.274994612E-01
 1.009999990E+00 -4.846517928E-03 6.226913333E-01
 1.009999990E+00 -4.688618705E-03 6.179528236E-01
 1.009999990E+00 -4.535974469E-03 6.132807136E-01
 1.009999990E+00 -4.388407338E-03 6.086728573E-01
 1.009999990E+00 -4.245747346E-03 6.041270494E-01
 1.009999990E+00 -4.107828252E-03 5.996401310E-01
 1.009999990E+00 -3.974491265E-03 5.952092409E-01
 1.009999990E+00 -3.845581785E-03 5.908316970E-01
 1.009999990E+00 -3.720950801E-03 5.865044594E-01
 1.009999990E+00 -3.600454656E-03 5.822244883E-01
 1.009999990E+00 -3.483953886E-03 5.779890418E-01
 1.009999990E+00 -3.371314146E-03 5.737948418E-01
 1.009999990E+00 -3.262405749E-03 5.696388483E-01
 1.009999990E+00 -3.157103201E-03 5.655180812E-01
 1.009999990E+00 -3.055284964E-03 5.614295602E-01
 1.009999990E+00 -2.956833923E-03 5.573704243E-01
 1.009999990E+00 -2.861637156E-03 5.533379912E-01
 1.009999990E+00 -2.769585000E-03 5.493291020E-01
 1.009999990E+00 -2.680571983E-03 5.453421474E-01
 1.009999990E+00 -2.594495658E-03 5.413753390E-01
 1.009999990E+00 -2.511257771E-03 5.374271274E-01
 1.009999990E+00 -2.430762630E-03 5.334965587E-01
 1.009999990E+00 -2.352918033E-03 5.295830369E-01
 1.009999990E+00 -2.277635271E-03 5.256865025E-01
 1.009999990E+00 -2.204828197E-03 5.218074918E-01
 1.009999990E+00 -2.134413458E-03 5.179470181E-01
 1.009999990E+00 -2.066311194E-03 5.141066313E-01
 1.009999990E+00 -2.000443172E-03 5.102882981E-01
 1.009999990E+00 -1.936735003E-03 5.064947605E-01
 1.009999990E+00 -1.875113929E-03 5.027287602E-01
 1.009999990E+00 -1.815509866E-03 4.989936352E-01
 1.009999990E+00 -1.757855178E-03 4.952931106E-01
 1.009999990E+00 -1.702084555E-03 4.916310012E-01
 1.009999990E+00 -1.648134785E-03 4.880113304E-01
 1.009999990E+00 -1.595944748E-03 4.844383299E-01
 1.009999990E+00 -1.545455540E-03 4.809160829E-01
 1.009999990E+00 -1.496609999E-03 4.774487615E-01
 1.009999990E+00 -1.449353062E-03 4.740404487E-01
 1.009999990E+00 -1.403631642E-03 4.706950486E-01
 1.009999990E+00 -1.359393937E-03 4.674160779E-01
 1.009999990E+00 -1.316590584E-03 4.642070532E-01
 1.009999990E+00 -1.275173272E-03 4.610711634E-01
 1.009999990E+00 -1.235095784E-03 4.580105543E-01
 1.009999990E+00 -1.196312951E-03 4.550282061E-01
 1.009999990E+00 -1.158781582E-03 4.521261156E-01
 1.009999990E+00 -1.122459769E-03 4.493061900E-01
 1.009999990E+00 -1.087306882E-03 4.465695322E-01
 1.009999990E+00 -1.053283806E-03 4.439173341E-01
 1.009999990E+00 -1.020352705E-03 4.413500130E-01
 1.009999990E+00 -9.884770261E-04 4.388679266E-01
 1.009999990E+00 -9.576214361E-04 4.364711344E-01
 1.009999990E+00 -9.277517092E-04 4.341588914E-01
 1.009999990E+00 -8.988348418E-04 4.319311380E-01
 1.009999990E+00 -8.708388777E-04 4.297859967E-01
 1.009999990E+00 -8.437330252E-04 4.277232289E-01
 1.009999990E+00 -8.174874238E-04 4.257411957E-01
 1.009999990E+00 -7.920732605E-04 4.238383174E-01
 1.009999990E+00 -7.674626540E-04 4.220124781E-01
 1.009999990E+00 -7.436286542E-04 4.202626944E-01
 1.009999990E+00 -7.205452421E-04 4.185861349E-01
 1.009999990E+00 -6.981872721E-04 4.169814289E-01
 1.009999990E+00 -6.765303551E-04 4.154459536E-01
 1.009999990E+00 -6.555509754E-04 4.139770567E-01
 1.009999990E+00 -6.352264318E-04 4.125733376E-01
 1.009999990E+00 -6.155346637E-04 4.112327099E-01
 1.009999990E+00 -5.964544252E-04 4.099518955E-01
 1.009999990E+00 -5.779651692E-04 4.087292850E-01
 1.009999990E+00 -5.600470467E-04 4.075625241E-01
 1.009999990E+00 -5.426807911E-04 4.064490795E-01
 1.009999990E+00 -5.258478341E-04 4.053868055E-01
 1.009999990E+00 -5.095301894E-04 4.043741226E-01
 1.009999990E+00 -4.937105114E-04 4.034089744E-01
 1.009999990E+00 -4.783718905E-04 4.024881124E-01
 1.009999990E+00 -4.634981742E-04 4.016104639E-01
 1.009999990E+00 -4.490735591E-04 4.007743299E-01
 1.009999990E+00 -4.350828531E-04 3.999771476E-01
 1.009999990E+00 -4.215113586E-04 3.992169201E-01
 1.009999990E+00 -4.083447857E-04 3.984927237E-01
 1.009999990E+00 -3.955693974E-04 3.978023231E-01
 1.009999990E+00 -3.831718350E-04 3.971444070E-01
 1.009999990E+00 -3.711392346E-04 3.965170979E-01
 1.009999990E+00 -3.594591108E-04 3.959191442E-01
 1.009999990E+00 -3.481193271E-04 3.953491151E-01
 1.009999990E+00 -3.371082421E-04 3.948055804E-01
 1.009999990E+00 -3.264145344E-04 3.942873180E-01
 1.009999990E+00 -3.160272317E-04 3.937924504E-01
 1.009999990E+00 -3.059357114E-04 3.933205307E-01
 1.009999990E+00 -2.961296996E-04 3.928699493E-01
 1.009999990E+00 -2.865992719E-04 3.924404085E-01
 1.009999990E+00 -2.773347951E-04 3.920295537E-01
 1.009999990E+00 -2.683268976E-04 3.916379213E-01
 1.009999990E+00 -2.595665574E-04 3.912633657E-01
 1.009999990E+00 -2.510449849E-04 3.909055889E-01
 1.009999990E+00 -2.427537402E-04 3.905639052E-01
 1.009999990E+00 -2.346845286E-04 3.902369738E-01
 1.009999990E+00 -2.268294047E-04 3.899241388E-01
 1.009999990E+00 -2.191806125E-04 3.896250427E-01
 1.009999990E+00 -2.117306431E-04 3.893390596E-01
 1.009999990E+00 -2.044722060E-04 3.890645802E-01
 1.009999990E+00 -1.973982435E-04 3.888017535E-01
 1.009999990E+00 -1.905019017E-04 3.885501623E-01
 1.009999990E+00 -1.837765012E-04 3.883091509E-01
 1.009999990E+00 -1.772155811E-04 3.880777657E-01
 1.009999990E+00 -1.708128548E-04 3.878555000E-01
 1.009999990E+00 -1.645622397E-04 3.876422942E-01
 1.009999990E+00 -1.584577694E-04 3.874377012E-01
 1.009999990E+00 -1.524936815E-04 3.872413635E-01
 1.009999990E+00 -1.466643589E-04 3.870522976E-01
 1.009999990E+00 -1.409643592E-04 3.868706524E-01
 1.009999990E+00 -1.353883417E-04 3.866955638E-01
 1.009999990E+00 -1.299311552E-04 3.865274787E-01
 1.009999990E+00 -1.245877211E-04 3.863654137E-01
 1.009999990E+00 -1.193531352E-04 3.862088621E-01
 1.009999990E+00 -1.142226029E-04 3.860579133E-01
 1.009999990E+00 -1.091914455E-04 3.859129250E-01
 1.009999990E+00 -1.042550866E-04 3.857721686E-01
 1.009999990E+00 -9.940905875E-05 3.856371641E-01
 1.009999990E+00 -9.464901086E-05 3.855060041E-01
 1.009999990E+00 -8.997067198E-05 3.853791356E-01
 1.009999990E+00 -8.536985843E-05 3.852564991E-01
 1.009999990E+00 -8.084248839E-05 3.851378262E-01
 1.009999990E+00 -7.638454554E-05 3.850224018E-01
 1.009999990E+00 -7.199210813E-05 3.849111199E-01
 1.009999990E+00 -6.766131264E-05 3.848032653E-01
 1.009999990E+00 -6.338836829E-05 3.846976459E-01
 1.009999990E+00 -5.916956070E-05 3.845960200E-01
 1.009999990E+00 -5.500121188E-05 3.844964206E-01
 1.009999990E+00 -5.087972022E-05 3.844005466E-01
 1.009999990E+00 -4.680152415E-05 3.843063414E-01
 1.009999990E+00 -4.276312029E-05 3.842150569E-01
 1.009999990E+00 -3.876104165E-05 3.841262162E-01
 1.009999990E+00 -3.479186489E-05 3.840391338E-01
 1.009999990E+00 -3.085220305E-05 3.839541376E-01
 1.009999990E+00 -2.693869828E-05 3.838717341E-01
 1.009999990E+00 -2.304802729E-05 3.837907016E-01
 1.009999990E+00 -1.917689042E-05 3.837115467E-01
 1.009999990E+00 -1.532200804E-05 3.836340904E-01
 1.009999990E+00 -1.148011779E-05 3.835583329E-01
 1.009999990E+00 -7.647975508E-06 3.834840953E-01
 1.009999990E+00 -3.822345661E-06 3.834113777E-01
 1.009999990E+00 0.000000000E+00 3.833423257E-01
 1.009999990E+00 3.822347935E-06 3.832702935E-01
 1.009999990E+00 7.647980055E-06 3.832017779E-01
 1.009999990E+00 1.148012416E-05 3.831345141E-01
 1.009999990E+00 1.532201532E-05 3.830684423E-01
 1.009999990E+00 1.917690133E-05 3.830035627E-01
 1.009999990E+00 2.304804002E-05 3.829397559E-01
 1.009999990E+00 2.693871284E-05 3.828770816E-01
 1.009999990E+00 3.085221761E-05 3.828149438E-01
 1.009999990E+00 3.479188308E-05 3.827543855E-01
 1.009999990E+00 3.876106348E-05 3.826948106E-01
 1.009999990E+00 4.276314212E-05 3.826357424E-01
 1.009999990E+00 4.680154962E-05 3.825777173E-01
 1.009999990E+00 5.087974569E-05 3.825211227E-01
 1.009999990E+00 5.500124098E-05 3.824645877E-01
 1.009999990E+00 5.916958980E-05 3.824100196E-01
 1.009999990E+00 6.338840467E-05 3.823555112E-01
 1.009999990E+00 6.766134902E-05 3.823029697E-01
 1.009999990E+00 7.199214451E-05 3.822504580E-01
 1.009999990E+00 7.638458919E-05 3.821990788E-01
 1.009999990E+00 8.084253204E-05 3.821492791E-01
 1.009999990E+00 8.536990208E-05 3.821001351E-01
 1.009999990E+00 8.997071563E-05 3.820521533E-01
 1.009999990E+00 9.464906179E-05 3.820054531E-01
 1.009999990E+00 9.940911696E-05 3.819599748E-01
 1.009999990E+00 1.042551376E-04 3.819149733E-01
 1.009999990E+00 1.091915037E-04 3.818722665E-01
 1.009999990E+00 1.142226683E-04 3.818302155E-01
 1.009999990E+00 1.193532007E-04 3.817902803E-01
 1.009999990E+00 1.245877793E-04 3.817519844E-01
 1.009999990E+00 1.299312280E-04 3.817150295E-01
 1.009999990E+00 1.353884290E-04 3.816795945E-01
 1.009999990E+00 1.409644319E-04 3.816467226E-01
 1.009999990E+00 1.466644462E-04 3.816154897E-01
 1.009999990E+00 1.524937543E-04 3.815867603E-01
 1.009999990E+00 1.584578567E-04 3.815600276E-01
 1.009999990E+00 1.645623270E-04 3.815360367E-01
 1.009999990E+00 1.708129566E-04 3.815150559E-01
 1.009999990E+00 1.772156829E-04 3.814971447E-01
 1.009999990E+00 1.837766031E-04 3.814821243E-01
 1.009999990E+00 1.905020035E-04 3.814702332E-01
 1.009999990E+00 1.973983599E-04 3.814622462E-01
 1.009999990E+00 2.044723224E-04 3.814584315E-01
 1.009999990E+00 2.117307595E-04 3.814589977E-01
 1.009999990E+00 2.191807289E-04 3.814634085E-01
 1.009999990E+00 2.268295357E-04 3.814729750E-01
 1.009999990E+00 2.346846741E-04 3.814880550E-01
 1.009999990E+00 2.427538711E-04 3.815085590E-01
 1.009999990E+00 2.510451304E-04 3.815348446E-01
 1.009999990E+00 2.595667029E-04 3.815679550E-01
 1.009999990E+00 2.683270432E-04 3.816081882E-01
 1.009999990E+00 2.773349406E-04 3.816552758E-01
 1.009999990E+00 2.865994466E-04 3.817111850E-01
 1.009999990E+00 2.961298742E-04 3.817747533E-01
 1.009999990E+00 3.059358860E-04 3.818479776E-01
 1.009999990E+00 3.160274064E-04 3.819307685E-01
 1.009999990E+00 3.264147381E-04 3.820241392E-01
 1.009999990E+00 3.371084458E-04 3.821280599E-01
 1.009999990E+00 3.481195308E-04 3.822438717E-01
 1.009999990E+00 3.594593145E-04 3.823723793E-01
 1.009999990E+00 3.711394675E-04 3.825143576E-01
 1.009999990E+00 3.831720969E-04 3.826707602E-01
 1.009999990E+00 3.955696302E-04 3.828421235E-01
 1.009999990E+00 4.083450476E-04 3.830298185E-01
 1.009999990E+00 4.215116205E-04 3.832345307E-01
 1.009999990E+00 4.350831150E-04 3.834578395E-01
 1.009999990E+00 4.490738502E-04 3.836999238E-01
 1.009999990E+00 4.634984653E-04 3.839621246E-01
 1.009999990E+00 4.783722106E-04 3.842464685E-01
 1.009999990E+00 4.937108024E-04 3.845539093E-01
 1.009999990E+00 5.095305387E-04 3.848845065E-01
 1.009999990E+00 5.258481833E-04 3.852412403E-01
 1.009999990E+00 5.426811404E-04 3.856253326E-01
 1.009999990E+00 5.600473960E-04 3.860376179E-01
 1.009999990E+00 5.779655767E-04 3.864794672E-01
 1.009999990E+00 5.964548327E-04 3.869524598E-01
 1.009999990E+00 6.155350711E-04 3.874589503E-01
 1.009999990E+00 6.352268392E-04 3.879998326E-01
 1.009999990E+00 6.555513828E-04 3.885762691E-01
 1.009999990E+00 6.765308208E-04 3.891919553E-01
 1.009999990E+00 6.981877377E-04 3.898464143E-01
 1.009999990E+00 7.205457659E-04 3.905423284E-01
 1.009999990E+00 7.436291780E-04 3.912820816E-01
 1.009999990E+00 7.674631779E-04 3.920662403E-01
 1.009999990E+00 7.920737844E-04 3.928980231E-01
 1.009999990E+00 8.174880059E-04 3.937777281E-01
 1.009999990E+00 8.437336073E-04 3.947081268E-01
 1.009999990E+00 8.708394598E-04 3.956915438E-01
 1.009999990E+00 8.988354239E-04 3.967284560E-01
 1.009999990E+00 9.277523495E-04 3.978213370E-01
 1.009999990E+00 9.576220764E-04 3.989713490E-01
 1.009999990E+00 9.884777246E-04 4.001814723E-01
 1.009999990E+00 1.020353404E-03 4.014517963E-01
 1.009999990E+00 1.053284504E-03 4.027837515E-01
 1.009999990E+00 1.087307581E-03 4.041800499E-01
 1.009999990E+00 1.122460468E-03 4.056421220E-01
 1.009999990E+00 1.158782397E-03 4.071711302E-01
 1.009999990E+00 1.196313766E-03 4.087671638E-01
 1.009999990E+00 1.235096599E-03 4.104326963E-01
 1.009999990E+00 1.275174203E-03 4.121685624E-01
 1.009999990E+00 1.316591515E-03 4.139743149E-01
 1.009999990E+00 1.359394984E-03 4.158520997E-01
 1.009999990E+00 1.403632574E-03 4.178021252E-01
 1.009999990E+00 1.449354109E-03 4.198247492E-01
 1.009999990E+00 1.496611047E-03 4.219202995E-01
 1.009999990E+00 1.545456587E-03 4.240891933E-01
 1.009999990E+00 1.595945912E-03 4.263314009E-01
 1.009999990E+00 1.648136065E-03 4.286464155E-01
 1.009999990E+00 1.702085836E-03 4.310349524E-01
 1.009999990E+00 1.757856458E-03 4.334957302E-01
 1.009999990E+00 1.815511147E-03 4.360292256E-01
 1.009999990E+00 1.875115326E-03 4.386345148E-01
 1.009999990E+00 1.936736517E-03 4.413109422E-01
 1.009999990E+00 2.000444802E-03 4.440580904E-01
 1.009999990E+00 2.066312591E-03 4.468758106E-01
 1.009999990E+00 2.134415088E-03 4.497629404E-01
 1.009999990E+00 2.204829827E-03 4.527190626E-01
 1.009999990E+00 2.277636901E-03 4.557439983E-01
 1.009999990E+00 2.352919895E-03 4.588369727E-01
 1.009999990E+00 2.430764493E-03 4.619978666E-01
 1.009999990E+00 2.511259634E-03 4.652266800E-01
 1.009999990E+00 2.594497753E-03 4.685230851E-01
 1.009999990E+00 2.680574078E-03 4.718875587E-01
 1.009999990E+00 2.769587096E-03 4.753200710E-01
 1.009999990E+00 2.861639485E-03 4.788212180E-01
 1.009999990E+00 2.956836252E-03 4.823910892E-01
 1.009999990E+00 3.055287292E-03 4.860314131E-01
 1.009999990E+00 3.157105530E-03 4.897432625E-01
 1.009999990E+00 3.262408311E-03 4.935270846E-01
 1.009999990E+00 3.371316940E-03 4.973855913E-01
 1.009999990E+00 3.483956680E-03 5.013205409E-01
 1.009999990E+00 3.600457450E-03 5.053331256E-01
 1.009999990E+00 3.720953828E-03 5.094261169E-01
 1.009999990E+00 3.845584812E-03 5.136017203E-01
 1.009999990E+00 3.974494524E-03 5.178623796E-01
 1.009999990E+00 4.107831512E-03 5.222104788E-01
 1.009999990E+00 4.245750606E-03 5.266488194E-01
 1.009999990E+00 4.388411064E-03 5.311806202E-01
 1.009999990E+00 4.535978194E-03 5.358086824E-01
 1.009999990E+00 4.688622896E-03 5.405360460E-01
 1.009999990E+00 4.846522119E-03 5.453647375E-01
 1.009999990E+00 5.009858869E-03 5.502985716E-01
 1.009999990E+00 5.178822670E-03 5.553404093E-01
 1.009999990E+00 5.353610031E-03 5.604941249E-01
 1.009999990E+00 5.534423050E-03 5.657629967E-01
 1.009999990E+00 5.721473135E-03 5.711504221E-01
 1.009999990E+00 5.914976355E-03 5.766599178E-01
 1.009999990E+00 6.115158554E-03 5.822951794E-01
 1.009999990E+00 6.322252564E-03 5.880601406E-01
 1.009999990E+00 6.536499131E-03 5.939583182E-01
 1.009999990E+00 6.758147385E-03 5.999918580E-01
 1.009999990E+00 6.987456232E-03 6.061649919E-01
 1.009999990E+00 7.224692032E-03 6.124806404E-01
 1.009999990E+00 7.470131386E-03 6.189432144E-01
 1.009999990E+00 7.724061143E-03 6.255557537E-01
 1.009999990E+00 7.986776531E-03 6.323222518E-01
 1.009999990E+00 8.258583955E-03 6.392467618E-01
 1.009999990E+00 8.539800532E-03 6.463310122E-01
 1.009999990E+00 8.830755018E-03 6.535774469E-01
 1.009999990E+00 9.131785482E-03 6.609879136E-01
 1.009999990E+00 9.443244897E-03 6.685663462E-01
 1.009999990E+00 9.765495546E-03 6.763144732E-01
 1.009999990E+00 1.009891182E-02 6.842353940E-01
 1.009999990E+00 1.044388302E-02 6.923288107E-01
 1.009999990E+00 1.080081146E-02 7.005940080E-01
 1.009999990E+00 1.117011346E-02 7.090306282E-01
 1.009999990E+00 1.155222021E-02 7.176386714E-01
 1.009999990E+00 1.194757689E-02 7.264182568E-01
 1.009999990E+00 1.235664450E-02 7.353644967E-01
 1.009999990E+00 1.277989987E-02 7.444710732E-01
 1.009999990E+00 1.321783569E-02 7.537325025E-01
 1.009999990E+00 1.367096324E-02 7.631435394E-01
 1.009999990E+00 1.413981058E-02 7.726938725E-01
 1.009999990E+00 1.462492254E-02 7.823680639E-01
 1.009999990E+00 1.512686349E-02 7.921508551E-01
 1.009999990E+00 1.564621925E-02 8.020284176E-01
 1.009999990E+00 1.618359052E-02 8.119753003E-01
 1.009999990E+00 1.673959941E-02 8.219590187E-01
 1.009999990E+00 1.731489226E-02 8.319536448E-01
 1.009999990E+00 1.791014336E-02 8.419196606E-01
 1.009999990E+00 1.852604933E-02 8.518031240E-01
 1.009999990E+00 1.916333288E-02 8.615559340E-01
 1.009999990E+00 1.982275024E-02 8.711118102E-01
 1.009999990E+00 2.050508372E-02 8.803822398E-01
 1.009999990E+00 2.121114731E-02 8.892911673E-01
 1.009999990E+00 2.194179967E-02 8.977171779E-01
 1.009999990E+00 2.269793302E-02 9.055363536E-01
 1.009999990E+00 2.348048054E-02 9.126076698E-01
 1.009999990E+00 2.429040708E-02 9.187577963E-01
 1.009999990E+00 2.512871847E-02 9.238593578E-01
 1.009999990E+00 2.599645779E-02 9.278023839E-01
 1.009999990E+00 2.689467557E-02 9.306384921E-01
 1.009999990E+00 2.782447077E-02 9.325458407E-01
 1.009999990E+00 2.878697403E-02 9.338468313E-01
 1.009999990E+00 2.978334390E-02 9.348536134E-01
 1.009999990E+00 3.081477992E-02 9.357754588E-01
 1.009999990E+00 3.188249841E-02 9.366969466E-01
 1.009999990E+00 3.298775852E-02 9.376324415E-01
 1.009999990E+00 3.413188085E-02 9.385798573E-01
 1.009999990E+00 3.531622514E-02 9.395363331E-01
 1.009999990E+00 3.654219210E-02 9.405027032E-01
 1.009999990E+00 3.781123832E-02 9.414781928E-01
 1.009999990E+00 3.912485763E-02 9.424636960E-01
 1.009999990E+00 4.048459977E-02 9.434583187E-01
 1.009999990E+00 4.189208150E-02 9.444625378E-01
 1.009999990E+00 4.334897920E-02 9.454757571E-01
 1.009999990E+00 4.485701397E-02 9.464980960E-01
 1.009999990E+00 4.641798139E-02 9.475294352E-01
 1.009999990E+00 4.803373292E-02 9.485694766E-01
 1.009999990E+00 4.970618710E-02 9.496183991E-01
 1.009999990E+00 5.143732578E-02 9.506756663E-01
 1.009999990E+00 5.322920904E-02 9.517415166E-01
 1.009999990E+00 5.508396775E-02 9.528154135E-01
 1.009999990E+00 5.700381100E-02 9.538975954E-01
 1.009999990E+00 5.899102241E-02 9.549875855E-01
 1.009999990E+00 6.104796752E-02 9.560853243E-01
 1.009999990E+00 6.317709386E-02 9.571906328E-01