VARIABLES = "X"
"Y"
"Mu_tOverMu_inf"
ZONE T="CFL3D x=29.2468"
 2.924682617E+01 3.411123063E-03 2.501620789E+02
 2.924682617E+01 7.194691803E-03 2.502108154E+02
 2.924682617E+01 1.127146557E-02 2.503020172E+02
 2.924682617E+01 1.557622477E-02 2.504417572E+02
 2.924682617E+01 2.005936019E-02 2.506344299E+02
 2.924682617E+01 2.468227409E-02 2.508830261E+02
 2.924682617E+01 2.941692434E-02 2.511895752E+02
 2.924682617E+01 3.424183652E-02 2.515552673E+02
 2.924682617E+01 3.914155811E-02 2.519808044E+02
 2.924682617E+01 4.410411417E-02 2.524663086E+02
 2.924682617E+01 4.912070185E-02 2.530116577E+02
 2.924682617E+01 5.418433249E-02 2.536163330E+02
 2.924682617E+01 5.928977951E-02 2.542795715E+02
 2.924682617E+01 6.443272531E-02 2.550003967E+02
 2.924682617E+01 6.960977614E-02 2.557776184E+02
 2.924682617E+01 7.481803745E-02 2.566098633E+02
 2.924682617E+01 8.005516976E-02 2.574955444E+02
 2.924682617E+01 8.531908691E-02 2.584330444E+02
 2.924682617E+01 9.060800821E-02 2.594205017E+02
 2.924682617E+01 9.592031687E-02 2.604559631E+02
 2.924682617E+01 1.012546197E-01 2.615374451E+02
 2.924682617E+01 1.066095978E-01 2.626628113E+02
 2.924682617E+01 1.119840965E-01 2.638299255E+02
 2.924682617E+01 1.173770055E-01 2.650365601E+02
 2.924682617E+01 1.227873415E-01 2.662805176E+02
 2.924682617E+01 1.282141656E-01 2.675594788E+02
 2.924682617E+01 1.336566061E-01 2.688712158E+02
 2.924682617E+01 1.391138583E-01 2.702134705E+02
 2.924682617E+01 1.445851475E-01 2.715840149E+02
 2.924682617E+01 1.500697285E-01 2.729806213E+02
 2.924682617E+01 1.555669606E-01 2.744011230E+02
 2.924682617E+01 1.610761583E-01 2.758434143E+02
 2.924682617E+01 1.665967256E-01 2.773053894E+02
 2.924682617E+01 1.721280813E-01 2.787850342E+02
 2.924682617E+01 1.776696742E-01 2.802803650E+02
 2.924682617E+01 1.832209527E-01 2.817894897E+02
 2.924682617E+01 1.887814403E-01 2.833105469E+02
 2.924682617E+01 1.943506300E-01 2.848417664E+02
 2.924682617E+01 1.999280900E-01 2.863814697E+02
 2.924682617E+01 2.055133283E-01 2.879279480E+02
 2.924682617E+01 2.111059576E-01 2.894796448E+02
 2.924682617E+01 2.167055905E-01 2.910350952E+02
 2.924682617E+01 2.223117799E-01 2.925928040E+02
 2.924682617E+01 2.279241830E-01 2.941514282E+02
 2.924682617E+01 2.335424274E-01 2.957096252E+02
 2.924682617E+01 2.391662002E-01 2.972661743E+02
 2.924682617E+01 2.447951138E-01 2.988198853E+02
 2.924682617E+01 2.504288852E-01 3.003696594E+02
 2.924682617E+01 2.560672164E-01 3.019143677E+02
 2.924682617E+01 2.617097497E-01 3.034530334E+02
 2.924682617E+01 2.673562467E-01 3.049846802E+02
 2.924682808E+01 2.730064392E-01 3.065084534E+02
 2.924682808E+01 2.786599994E-01 3.080234070E+02
 2.924682808E+01 2.843166888E-01 3.095287781E+02
 2.924682808E+01 2.899762690E-01 3.110238037E+02
 2.924682808E+01 2.956385016E-01 3.125077209E+02
 2.924682808E+01 3.013031185E-01 3.139799194E+02
 2.924682808E+01 3.069699109E-01 3.154396973E+02
 2.924682808E+01 3.126386404E-01 3.168865051E+02
 2.924682808E+01 3.183091283E-01 3.183197021E+02
 2.924682808E+01 3.239811063E-01 3.197388000E+02
 2.924682808E+01 3.296544254E-01 3.211432800E+02
 2.924682808E+01 3.353288770E-01 3.225326843E+02
 2.924682808E+01 3.410042226E-01 3.239065552E+02
 2.924682808E+01 3.466803133E-01 3.252644958E+02
 2.924682808E+01 3.523569703E-01 3.266061096E+02
 2.924682808E+01 3.580340445E-01 3.279310303E+02
 2.924682808E+01 3.637112975E-01 3.292388916E+02
 2.924682808E+01 3.693885803E-01 3.305293884E+02
 2.924682808E+01 3.750658035E-01 3.318022766E+02
 2.924682808E+01 3.807426989E-01 3.330571899E+02
 2.924682808E+01 3.864191771E-01 3.342939148E+02
 2.924682808E+01 3.920950890E-01 3.355122375E+02
 2.924682808E+01 3.977702558E-01 3.367118835E+02
 2.924682808E+01 4.034445286E-01 3.378926697E+02
 2.924682808E+01 4.091178477E-01 3.390544128E+02
 2.924682808E+01 4.147899747E-01 3.401968994E+02
 2.924682808E+01 4.204608202E-01 3.413200073E+02
 2.924682808E+01 4.261302650E-01 3.424235535E+02
 2.924682808E+01 4.317981601E-01 3.435074158E+02
 2.924682808E+01 4.374643862E-01 3.445714722E+02
 2.924682808E+01 4.431288540E-01 3.456156006E+02
 2.924682808E+01 4.487914145E-01 3.466396790E+02
 2.924682808E+01 4.544518888E-01 3.476436157E+02
 2.924682808E+01 4.601102769E-01 3.486273499E+02
 2.924682808E+01 4.657664299E-01 3.495907898E+02
 2.924682808E+01 4.714201987E-01 3.505339050E+02
 2.924682808E+01 4.770715535E-01 3.514566040E+02
 2.924682808E+01 4.827202857E-01 3.523587952E+02
 2.924682808E+01 4.883664250E-01 3.532405090E+02
 2.924682808E+01 4.940097332E-01 3.541016541E+02
 2.924682808E+01 4.996501803E-01 3.549422607E+02
 2.924682808E+01 5.052877665E-01 3.557622375E+02
 2.924682808E+01 5.109221935E-01 3.565616150E+02
 2.924682808E+01 5.165535212E-01 3.573403625E+02
 2.924682808E+01 5.221816301E-01 3.580985413E+02
 2.924682808E+01 5.278064013E-01 3.588361206E+02
 2.924682808E+01 5.334277749E-01 3.595531311E+02
 2.924682808E+01 5.390456915E-01 3.602495728E+02
 2.924682808E+01 5.446600318E-01 3.609255066E+02
 2.924682808E+01 5.502706766E-01 3.615809021E+02
 2.924682808E+01 5.558776855E-01 3.622158203E+02
 2.924682808E+01 5.614808202E-01 3.628302917E+02
 2.924682808E+01 5.670800805E-01 3.634243164E+02
 2.924682808E+01 5.726754069E-01 3.639979553E+02
 2.924682808E+01 5.782667398E-01 3.645512085E+02
 2.924682808E+01 5.838539600E-01 3.650841370E+02
 2.924682808E+01 5.894370079E-01 3.655967712E+02
 2.924682808E+01 5.950158238E-01 3.660891418E+02
 2.924682808E+01 6.005902886E-01 3.665613098E+02
 2.924682808E+01 6.061604023E-01 3.670133362E+02
 2.924682808E+01 6.117261052E-01 3.674452209E+02
 2.924682808E+01 6.172873378E-01 3.678571167E+02
 2.924682808E+01 6.228439212E-01 3.682490540E+02
 2.924682808E+01 6.283959150E-01 3.686210938E+02
 2.924682808E+01 6.339432597E-01 3.689733276E+02
 2.924682808E+01 6.394858360E-01 3.693057861E+02
 2.924682808E+01 6.450235844E-01 3.696185913E+02
 2.924682808E+01 6.505565047E-01 3.699118042E+02
 2.924682808E+01 6.560845375E-01 3.701854858E+02
 2.924682808E+01 6.616075039E-01 3.704397583E+02
 2.924682808E+01 6.671254635E-01 3.706746826E+02
 2.924682808E+01 6.726383567E-01 3.708903198E+02
 2.924682808E+01 6.781460643E-01 3.710868225E+02
 2.924682808E+01 6.836485863E-01 3.712642212E+02
 2.924682808E+01 6.891458631E-01 3.714226379E+02
 2.924682808E+01 6.946377754E-01 3.715621643E+02
 2.924682808E+01 7.000490427E-01 3.716813660E+02
 2.924682808E+01 7.053806782E-01 3.717810974E+02
 2.924682808E+01 7.106338739E-01 3.718622437E+02
 2.924682808E+01 7.158097029E-01 3.719255676E+02
 2.924682808E+01 7.209092975E-01 3.719718933E+02
 2.924682808E+01 7.259336114E-01 3.720019836E+02
 2.924682808E+01 7.308837175E-01 3.720165405E+02
 2.924682808E+01 7.357606888E-01 3.720162659E+02
 2.924682808E+01 7.405655980E-01 3.720018921E+02
 2.924682808E+01 7.452993393E-01 3.719739990E+02
 2.924682808E+01 7.499630451E-01 3.719332886E+02
 2.924682808E+01 7.545576096E-01 3.718803711E+02
 2.924682808E+01 7.590839863E-01 3.718157959E+02
 2.924682808E+01 7.635432482E-01 3.717401428E+02
 2.924682808E+01 7.679362893E-01 3.716539917E+02
 2.924682808E+01 7.722640038E-01 3.715578308E+02
 2.924682808E+01 7.765273452E-01 3.714521790E+02
 2.924682808E+01 7.807272077E-01 3.713375549E+02
 2.924682808E+01 7.848646045E-01 3.712144165E+02
 2.924682808E+01 7.889402509E-01 3.710831909E+02
 2.924682999E+01 7.929551005E-01 3.709443665E+02
 2.924682999E+01 7.969100475E-01 3.707983398E+02
 2.924682999E+01 8.008058667E-01 3.706454773E+02
 2.924682999E+01 8.046435118E-01 3.704862366E+02
 2.924682999E+01 8.084237576E-01 3.703209534E+02
 2.924682999E+01 8.121473789E-01 3.701499939E+02
 2.924682999E+01 8.158152699E-01 3.699737244E+02
 2.924682999E+01 8.194280863E-01 3.697924805E+02
 2.924682999E+01 8.229868412E-01 3.696065369E+02
 2.924682999E+01 8.264921308E-01 3.694162598E+02
 2.924682999E+01 8.299447298E-01 3.692218933E+02
 2.924682999E+01 8.333454132E-01 3.690237732E+02
 2.924682999E+01 8.366950154E-01 3.688221741E+02
 2.924682999E+01 8.399940729E-01 3.686173096E+02
 2.924682999E+01 8.432435989E-01 3.684094543E+02
 2.924682999E+01 8.464440107E-01 3.681988831E+02
 2.924682999E+01 8.495962024E-01 3.679857788E+02
 2.924682999E+01 8.527007103E-01 3.677704163E+02
 2.924682999E+01 8.557584286E-01 3.675529480E+02
 2.924682999E+01 8.587698936E-01 3.673336487E+02
 2.924682999E+01 8.617358804E-01 3.671126404E+02
 2.924682999E+01 8.646569252E-01 3.668901672E+02
 2.924682999E+01 8.675336838E-01 3.666663818E+02
 2.924682999E+01 8.703668714E-01 3.664414978E+02
 2.924682999E+01 8.731570840E-01 3.662156372E+02
 2.924682999E+01 8.759049177E-01 3.659889832E+02
 2.924682999E+01 8.786110878E-01 3.657616577E+02
 2.924682999E+01 8.812760115E-01 3.655338440E+02
 2.924682999E+01 8.839004636E-01 3.653056335E+02
 2.924682999E+01 8.864849806E-01 3.650772095E+02
 2.924682999E+01 8.890300989E-01 3.648486633E+02
 2.924682999E+01 8.915364146E-01 3.646201477E+02
 2.924682999E+01 8.940044641E-01 3.643917542E+02
 2.924682999E+01 8.964349031E-01 3.641636047E+02
 2.924682999E+01 8.988281488E-01 3.639357605E+02
 2.924682999E+01 9.011847973E-01 3.637084045E+02
 2.924682999E+01 9.035054445E-01 3.634815369E+02
 2.924682999E+01 9.057905078E-01 3.632553406E+02
 2.924682999E+01 9.080405831E-01 3.630298462E+02
 2.924682999E+01 9.102561474E-01 3.628051147E+02
 2.924682999E+01 9.124376774E-01 3.625812988E+02
 2.924682999E+01 9.145857692E-01 3.623583984E+02
 2.924682999E+01 9.167007804E-01 3.621365356E+02
 2.924682999E+01 9.187832475E-01 3.619157715E+02
 2.924682999E+01 9.208336473E-01 3.616961060E+02
 2.924682999E+01 9.228524566E-01 3.614776611E+02
 2.924682999E+01 9.248401523E-01 3.612604980E+02
 2.924682999E+01 9.267970920E-01 3.610446472E+02
 2.924682999E+01 9.287239313E-01 3.608301392E+02
 2.924682999E+01 9.306208491E-01 3.606170654E+02
 2.924682999E+01 9.324885011E-01 3.604054260E+02
 2.924682999E+01 9.343271852E-01 3.601953125E+02
 2.924682999E+01 9.361373782E-01 3.599867249E+02
 2.924682999E+01 9.379194975E-01 3.597796936E+02
 2.924682999E+01 9.396739602E-01 3.595742798E+02
 2.924682999E+01 9.414011240E-01 3.593705139E+02
 2.924682999E+01 9.431014657E-01 3.591683960E+02
 2.924682999E+01 9.447753429E-01 3.589679871E+02
 2.924682999E+01 9.464231133E-01 3.587693176E+02
 2.924682999E+01 9.480452538E-01 3.585723572E+02
 2.924682999E+01 9.496420026E-01 3.583771667E+02
 2.924682999E+01 9.512139559E-01 3.581837769E+02
 2.924682999E+01 9.527612329E-01 3.579921875E+02
 2.924682999E+01 9.542842507E-01 3.578023987E+02
 2.924682999E+01 9.557834864E-01 3.576144714E+02
 2.924682999E+01 9.572591782E-01 3.574283752E+02
 2.924682999E+01 9.587117434E-01 3.572441406E+02
 2.924682999E+01 9.601414800E-01 3.570617676E+02
 2.924682999E+01 9.615487456E-01 3.568812866E+02
 2.924682999E+01 9.629338980E-01 3.567026672E+02
 2.924682999E+01 9.642971754E-01 3.565259705E+02
 2.924682999E+01 9.656389952E-01 3.563511658E+02
 2.924682999E+01 9.669596553E-01 3.561782227E+02
 2.924682999E+01 9.682593942E-01 3.560072327E+02
 2.924682999E+01 9.695386291E-01 3.558381348E+02
 2.924682999E+01 9.707975984E-01 3.556709595E+02
 2.924682999E+01 9.720366001E-01 3.555056763E+02
 2.924682999E+01 9.732559919E-01 3.553422852E+02
 2.924682999E+01 9.744559526E-01 3.551808472E+02
 2.924682999E+01 9.756368399E-01 3.550212708E+02
 2.924682999E+01 9.767989516E-01 3.548636169E+02
 2.924682999E+01 9.779425263E-01 3.547078247E+02
 2.924682999E+01 9.790679216E-01 3.545539551E+02
 2.924682999E+01 9.801752567E-01 3.544019775E+02
 2.924682999E+01 9.812649488E-01 3.542518616E+02
 2.924682999E+01 9.823371768E-01 3.541036377E+02
 2.924682999E+01 9.833921790E-01 3.539572754E+02
 2.924682999E+01 9.844302535E-01 3.538127747E+02
 2.924682999E+01 9.854517579E-01 3.536701050E+02
 2.924682999E+01 9.864567518E-01 3.535292969E+02
 2.924682999E+01 9.874455929E-01 3.533902893E+02
 2.924682999E+01 9.884184599E-01 3.532531433E+02
 2.924682999E+01 9.893756509E-01 3.531177673E+02
 2.924682999E+01 9.903173447E-01 3.529842224E+02
 2.924682999E+01 9.912438393E-01 3.528524780E+02
 2.924682999E+01 9.921552539E-01 3.527225037E+02
 2.924682999E+01 9.930518866E-01 3.525942993E+02
 2.924682999E+01 9.939339757E-01 3.524678345E+02
 2.924682999E+01 9.948017001E-01 3.523431396E+02
 2.924682999E+01 9.956552982E-01 3.522201843E+02
 2.924682999E+01 9.964950085E-01 3.520989075E+02
 2.924682999E+01 9.973208904E-01 3.519793701E+02
 2.924682999E+01 9.981333613E-01 3.518615112E+02
 2.924682999E+01 9.989324808E-01 3.517453613E+02
 2.924682999E+01 9.997184873E-01 3.516308289E+02
 2.924682999E+01 1.000491500E+00 3.515180054E+02
 2.924682999E+01 1.001251936E+00 3.514067688E+02
 2.924682999E+01 1.001999736E+00 3.512971802E+02
 2.924682999E+01 1.002735257E+00 3.511892090E+02
 2.924682999E+01 1.003471375E+00 3.510809326E+02
 2.924682999E+01 1.004227161E+00 3.509695740E+02
 2.924682999E+01 1.005003214E+00 3.508550110E+02
 2.924682999E+01 1.005800247E+00 3.507370911E+02
 2.924682999E+01 1.006619096E+00 3.506157227E+02
 2.924682999E+01 1.007460237E+00 3.504907532E+02
 2.924682999E+01 1.008324623E+00 3.503620300E+02
 2.924682999E+01 1.009212971E+00 3.502294617E+02
 2.924682999E+01 1.010126352E+00 3.500927734E+02
 2.924682999E+01 1.011065245E+00 3.499519348E+02
 2.924682999E+01 1.012030721E+00 3.498067017E+02
 2.924682999E+01 1.013023734E+00 3.496569214E+02
 2.924682999E+01 1.014045238E+00 3.495024109E+02
 2.924682999E+01 1.015096068E+00 3.493429565E+02
 2.924682999E+01 1.016177177E+00 3.491784363E+02
 2.924682999E+01 1.017289758E+00 3.490085449E+02
 2.924682999E+01 1.018434882E+00 3.488331299E+02
 2.924682999E+01 1.019613743E+00 3.486519470E+02
 2.924682999E+01 1.020827293E+00 3.484647522E+02
 2.924682999E+01 1.022076726E+00 3.482713013E+02
 2.924682999E+01 1.023363590E+00 3.480713196E+02
 2.924682999E+01 1.024688840E+00 3.478645630E+02
 2.924682999E+01 1.026053905E+00 3.476507568E+02
 2.924682999E+01 1.027459979E+00 3.474295959E+02
 2.924682999E+01 1.028908730E+00 3.472007446E+02
 2.924682999E+01 1.030401587E+00 3.469638977E+02
 2.924682999E+01 1.031939864E+00 3.467187195E+02
 2.924682999E+01 1.033525229E+00 3.464648438E+02
 2.924682999E+01 1.035159469E+00 3.462019043E+02
 2.924682999E+01 1.036844015E+00 3.454816589E+02
 2.924682999E+01 1.038580537E+00 3.434616089E+02
 2.924682999E+01 1.040371060E+00 3.397739258E+02
 2.924682999E+01 1.042217255E+00 3.347781067E+02
 2.924682999E+01 1.044121146E+00 3.290589294E+02
 2.924682999E+01 1.046084523E+00 3.231027527E+02
 2.924682999E+01 1.048109651E+00 3.172845459E+02
 2.924682999E+01 1.050198555E+00 3.118716736E+02
 2.924682999E+01 1.052353382E+00 3.070330200E+02
 2.924682999E+01 1.054576278E+00 3.028542480E+02
 2.924682999E+01 1.056869864E+00 2.993529358E+02
 2.924682999E+01 1.059236288E+00 2.964958496E+02
 2.924682999E+01 1.061678171E+00 2.942125854E+02
 2.924682999E+01 1.064198136E+00 2.924092712E+02
 2.924682999E+01 1.066798687E+00 2.909799805E+02
 2.924682999E+01 1.069482565E+00 2.898162231E+02
 2.924682999E+01 1.072252870E+00 2.888146362E+02
 2.924682999E+01 1.075112343E+00 2.878831177E+02
 2.924682999E+01 1.078064203E+00 2.869446411E+02
 2.924682999E+01 1.081111312E+00 2.859396667E+02
 2.924682999E+01 1.084257126E+00 2.848262634E+02
 2.924682999E+01 1.087505102E+00 2.835792542E+02
 2.924682999E+01 1.090858459E+00 2.821880798E+02
 2.924682999E+01 1.094321012E+00 2.806536255E+02
 2.924682999E+01 1.097896338E+00 2.789851379E+02
 2.924682999E+01 1.101588488E+00 2.771967773E+02
 2.924682999E+01 1.105401278E+00 2.753048706E+02
 2.924682999E+01 1.109338760E+00 2.733253479E+02
 2.924682999E+01 1.113405347E+00 2.712718811E+02
 2.924682999E+01 1.117605448E+00 2.691551514E+02
 2.924682999E+01 1.121943355E+00 2.669822388E+02
 2.924682999E+01 1.126424074E+00 2.647565918E+02
 2.924682999E+01 1.131052375E+00 2.624787598E+02
 2.924682999E+01 1.135833144E+00 2.601470032E+02
 2.924682999E+01 1.140771747E+00 2.577578735E+02
 2.924682999E+01 1.145873427E+00 2.553073425E+02
 2.924682999E+01 1.151143789E+00 2.527910461E+02
 2.924682999E+01 1.156588554E+00 2.502049713E+02
 2.924682999E+01 1.162213683E+00 2.475457001E+02
 2.924682999E+01 1.168025374E+00 2.448104553E+02
 2.924682999E+01 1.174029827E+00 2.419972229E+02
 2.924682999E+01 1.180233836E+00 2.391043549E+02
 2.924682999E+01 1.186643958E+00 2.361308136E+02
 2.924682999E+01 1.193267107E+00 2.330756531E+02
 2.924682999E+01 1.200110912E+00 2.299377441E+02
 2.924682999E+01 1.207182527E+00 2.267162476E+02
 2.924682999E+01 1.214489937E+00 2.234098511E+02
 2.924682999E+01 1.222041011E+00 2.200172272E+02
 2.924682999E+01 1.229843974E+00 2.165368195E+02
 2.924682999E+01 1.237907529E+00 2.129667358E+02
 2.924682999E+01 1.246240377E+00 2.093049316E+02
 2.924682999E+01 1.254851818E+00 2.055490112E+02
 2.924682999E+01 1.263751268E+00 2.016963806E+02
 2.924683189E+01 1.272948623E+00 1.977438965E+02
 2.924683189E+01 1.282453656E+00 1.936880188E+02
 2.924683189E+01 1.292277098E+00 1.895244141E+02
 2.924683189E+01 1.302429676E+00 1.852479248E+02
 2.924683189E+01 1.312922716E+00 1.808523712E+02
 2.924683189E+01 1.323767543E+00 1.763304138E+02
 2.924683189E+01 1.334976077E+00 1.716731567E+02
 2.924683189E+01 1.346561074E+00 1.668699188E+02
 2.924683189E+01 1.358534694E+00 1.619083862E+02
 2.924683189E+01 1.370910645E+00 1.567733917E+02
 2.924683189E+01 1.383702397E+00 1.514470062E+02
 2.924683189E+01 1.396924019E+00 1.459075165E+02
 2.924683189E+01 1.410590172E+00 1.401282196E+02
 2.924683189E+01 1.424715996E+00 1.340761261E+02
 2.924683189E+01 1.439316869E+00 1.277106476E+02
 2.924683189E+01 1.454409003E+00 1.209824524E+02
 2.924683189E+01 1.470009208E+00 1.138334503E+02
 2.924683189E+01 1.486134648E+00 1.061986008E+02
 2.924683189E+01 1.502803087E+00 9.800908661E+01
 2.924683189E+01 1.520033002E+00 8.919622040E+01
 2.924683189E+01 1.537843466E+00 7.969316101E+01
 2.924683189E+01 1.556254268E+00 6.943234253E+01
 2.924683189E+01 1.575285554E+00 5.834181213E+01
 2.924683189E+01 1.594958425E+00 4.635342026E+01
 2.924683189E+01 1.615294933E+00 3.343431854E+01
 2.924683189E+01 1.636317134E+00 1.886593628E+01
 2.924683189E+01 1.658048749E+00 6.242018223E+00
 2.924683189E+01 1.680513620E+00 7.878127098E-01
 2.924683189E+01 1.703736663E+00 3.786526993E-02
 2.924683380E+01 1.727743626E+00 8.249085397E-03
 2.924683380E+01 1.752561212E+00 7.481016219E-03
 2.924683380E+01 1.778216839E+00 7.462445647E-03
 2.924683380E+01 1.804738879E+00 7.461978123E-03
 2.924683380E+01 1.832156897E+00 7.461924106E-03
 2.924683380E+01 1.860501170E+00 7.461879868E-03
 2.924683380E+01 1.889803410E+00 7.461836096E-03
 2.924683380E+01 1.920095921E+00 7.461793255E-03
 2.924683380E+01 1.951412439E+00 7.461750880E-03
 2.924683380E+01 1.983787656E+00 7.461709436E-03
 2.924683380E+01 2.017257452E+00 7.461667992E-03
 2.924683380E+01 2.051859379E+00 7.461627945E-03
 2.924683380E+01 2.087631702E+00 7.461587898E-03
 2.924683380E+01 2.124613762E+00 7.461548317E-03
 2.924683380E+01 2.162847519E+00 7.461509667E-03
 2.924683571E+01 2.202374935E+00 7.461471483E-03
 2.924683571E+01 2.243240118E+00 7.461434230E-03
 2.924683571E+01 2.285488605E+00 7.461397443E-03
 2.924683571E+01 2.329167604E+00 7.461361121E-03
 2.924683571E+01 2.374325275E+00 7.461325265E-03
 2.924683571E+01 2.421012402E+00 7.461289875E-03
 2.924683571E+01 2.469280958E+00 7.461255416E-03
 2.924683571E+01 2.519184351E+00 7.461220957E-03
 2.924683571E+01 2.570778847E+00 7.461187430E-03
 2.924683571E+01 2.624121666E+00 7.461154368E-03
 2.924683762E+01 2.679272413E+00 7.461121771E-03
 2.924683762E+01 2.736292362E+00 7.461089641E-03
 2.924683762E+01 2.795245886E+00 7.461057976E-03
 2.924683762E+01 2.856198311E+00 7.461027242E-03
 2.924683762E+01 2.919217825E+00 7.460996509E-03
 2.924683762E+01 2.984375238E+00 7.460966241E-03
 2.924683762E+01 3.051743031E+00 7.460936438E-03
 2.924683762E+01 3.121397018E+00 7.460907102E-03
 2.924683952E+01 3.193414927E+00 7.460878231E-03
 2.924683952E+01 3.267877340E+00 7.460849360E-03
 2.924683952E+01 3.344867945E+00 7.460821420E-03
 2.924683952E+01 3.424473286E+00 7.460793480E-03
 2.924683952E+01 3.506781816E+00 7.460766006E-03
 2.924683952E+01 3.591886997E+00 7.460738998E-03
 2.924684143E+01 3.679883957E+00 7.460711990E-03
 2.924684143E+01 3.770871401E+00 7.460685447E-03
 2.924684143E+01 3.864952087E+00 7.460659370E-03
 2.924684143E+01 3.962231159E+00 7.460633758E-03
 2.924684143E+01 4.062819004E+00 7.460608147E-03
 2.924684334E+01 4.166828156E+00 7.460582536E-03
 2.924684334E+01 4.274375916E+00 7.460557390E-03
 2.924684334E+01 4.385583878E+00 7.460532710E-03
 2.924684334E+01 4.500577450E+00 7.460507564E-03
 2.924684525E+01 4.619486809E+00 7.460482884E-03
 2.924684525E+01 4.742445469E+00 7.460458670E-03
 2.924684525E+01 4.869592667E+00 7.460434455E-03
 2.924684525E+01 5.001072884E+00 7.460410241E-03
 2.924684715E+01 5.137034893E+00 7.460386027E-03
 2.924684715E+01 5.277632236E+00 7.460361812E-03
 2.924684715E+01 5.423024654E+00 7.460338064E-03
 2.924684715E+01 5.573377132E+00 7.460314315E-03
 2.924684906E+01 5.728860378E+00 7.460290566E-03
 2.924684906E+01 5.889651299E+00 7.460266817E-03
 2.924684906E+01 6.055932522E+00 7.460242603E-03
 2.924685097E+01 6.227894306E+00 7.460218389E-03
 2.924685097E+01 6.405731678E+00 7.460194640E-03
 2.924685097E+01 6.589647770E+00 7.460170425E-03
 2.924685287E+01 6.779852867E+00 7.460146211E-03
 2.924685287E+01 6.976564407E+00 7.460121997E-03
 2.924685287E+01 7.180006981E+00 7.460097317E-03
 2.924685478E+01 7.390414238E+00 7.460072171E-03
 2.924685478E+01 7.608026981E+00 7.460047491E-03
 2.924685669E+01 7.833095074E+00 7.460022345E-03
 2.924685669E+01 8.065877914E+00 7.459996734E-03
 2.924685669E+01 8.306641579E+00 7.459971122E-03
 2.924685860E+01 8.555665016E+00 7.459944580E-03
 2.924685860E+01 8.813235283E+00 7.459918503E-03
 2.924686050E+01 9.079649925E+00 7.459891494E-03
 2.924686050E+01 9.355215073E+00 7.459864486E-03
 2.924686241E+01 9.640253067E+00 7.459837012E-03
 2.924686241E+01 9.935091972E+00 7.459809072E-03
 2.924686432E+01 1.024007607E+01 7.459780667E-03
 2.924686432E+01 1.055555820E+01 7.459751796E-03
 2.924686623E+01 1.088190651E+01 7.459722459E-03
 2.924686623E+01 1.121950340E+01 7.459692657E-03
 2.924686813E+01 1.156874180E+01 7.459662855E-03
 2.924686813E+01 1.193003178E+01 7.459632121E-03
 2.924687004E+01 1.230379677E+01 7.459600922E-03
 2.924687004E+01 1.269047642E+01 7.459569722E-03
 2.924687195E+01 1.309052658E+01 7.459537592E-03
 2.924687195E+01 1.350441933E+01 7.459505461E-03
 2.924687386E+01 1.393264294E+01 7.459472399E-03
 2.924687576E+01 1.437570858E+01 7.459439337E-03
 2.924687576E+01 1.483413982E+01 7.459405344E-03
 2.924687767E+01 1.530848598E+01 7.459371351E-03
 2.924687767E+01 1.579931355E+01 7.459336892E-03
 2.924687958E+01 1.630721092E+01 7.459301502E-03
 2.924688148E+01 1.683278847E+01 7.459266111E-03
 2.924688148E+01 1.737668228E+01 7.459230721E-03
 2.924688339E+01 1.793955040E+01 7.459194399E-03
 2.924688530E+01 1.852207756E+01 7.459158078E-03
 2.924688530E+01 1.912497330E+01 7.459121291E-03
 2.924688721E+01 1.974898148E+01 7.459084038E-03
 2.924688721E+01 2.039486694E+01 7.459046785E-03
 2.924688911E+01 2.106342888E+01 7.459009066E-03
 2.924689102E+01 2.175550270E+01 7.458971348E-03
 2.924689102E+01 2.247195435E+01 7.458933629E-03
 2.924689293E+01 2.321368217E+01 7.458895445E-03
 2.924689484E+01 2.398162651E+01 7.458857261E-03
 2.924689484E+01 2.477676964E+01 7.458819076E-03
 2.924689674E+01 2.560013199E+01 7.458780427E-03
 2.924689865E+01 2.645277977E+01 7.458742242E-03
 2.924689865E+01 2.733582878E+01 7.458704058E-03
 2.924690056E+01 2.825044060E+01 7.458665874E-03
 2.924690056E+01 2.919783592E+01 7.458627690E-03
 2.924690247E+01 3.017928505E+01 7.458589971E-03
 2.924690437E+01 3.119612694E+01 7.458551787E-03
 2.924690437E+01 3.224975967E+01 7.458514534E-03
 2.924690628E+01 3.334165573E+01 7.458477281E-03
 2.924690628E+01 3.447335434E+01 7.458440494E-03
 2.924690628E+01 3.564648056E+01 7.458403707E-03
 2.924690819E+01 3.686274338E+01 7.458367385E-03
 2.924690819E+01 3.812394714E+01 7.458331995E-03
 2.924690819E+01 3.943199921E+01 7.458296604E-03
 2.924691010E+01 4.078890228E+01 7.458261680E-03
 2.924691010E+01 4.219678879E+01 7.458227221E-03
 2.924691010E+01 4.365792465E+01 7.458193693E-03
 2.924691010E+01 4.517469406E+01 7.458160631E-03
 2.924691010E+01 4.674965286E+01 7.458128501E-03
 2.924691010E+01 4.838551331E+01 7.458096836E-03
 2.924690819E+01 5.008517838E+01 7.458066102E-03
 2.924690819E+01 5.185173416E+01 7.458036300E-03
 2.924690628E+01 5.368849564E+01 7.458006963E-03
 2.924690628E+01 5.559900665E+01 7.457979023E-03
 2.924690437E+01 5.758708191E+01 7.457951549E-03
 2.924690247E+01 5.965679169E+01 7.457925472E-03
 2.924689865E+01 6.181252670E+01 7.457899861E-03
 2.924689674E+01 6.405897522E+01 7.457876112E-03
 2.924689293E+01 6.640118408E+01 7.457852829E-03
 2.924688721E+01 6.884449768E+01 7.457831409E-03
 2.924688339E+01 7.139461517E+01 7.457811385E-03
 2.924687767E+01 7.405745697E+01 7.457792293E-03
 2.924687004E+01 7.683917236E+01 7.457775064E-03
 2.924686432E+01 7.974582672E+01 7.457759697E-03
 2.924685478E+01 8.278316498E+01 7.457745727E-03
 2.924684715E+01 8.595601654E+01 7.457734086E-03
 2.924683952E+01 8.926735687E+01 7.457724772E-03
 2.924683189E+01 9.271705627E+01 7.457717787E-03
 2.924682617E+01 9.629940033E+01 7.457713131E-03
 2.924682617E+01 1.000000000E+02 0.000000000E+00
ZONE T="FUN3D x=29.2468"
 2.924682617E+01 0.000000000E+00 2.499602661E+02
 2.924682617E+01 3.411123063E-03 2.499745026E+02
 2.924682617E+01 7.194691803E-03 2.500235596E+02
 2.924682617E+01 1.127146557E-02 2.501154938E+02
 2.924682617E+01 1.557622477E-02 2.502563934E+02
 2.924682617E+01 2.005936019E-02 2.504506378E+02
 2.924682617E+01 2.468227409E-02 2.507012939E+02
 2.924682617E+01 2.941692434E-02 2.510103607E+02
 2.924682617E+01 3.424183652E-02 2.513790894E+02
 2.924682617E+01 3.914155811E-02 2.518081360E+02
 2.924682617E+01 4.410411417E-02 2.522976685E+02
 2.924682617E+01 4.912070185E-02 2.528475189E+02
 2.924682617E+01 5.418433249E-02 2.534571686E+02
 2.924682617E+01 5.928977951E-02 2.541258698E+02
 2.924682617E+01 6.443272531E-02 2.548526306E+02
 2.924682617E+01 6.960977614E-02 2.556362457E+02
 2.924682617E+01 7.481803745E-02 2.564753113E+02
 2.924682617E+01 8.005516976E-02 2.573682556E+02
 2.924682617E+01 8.531908691E-02 2.583134155E+02
 2.924682617E+01 9.060800821E-02 2.593089294E+02
 2.924682617E+01 9.592031687E-02 2.603528442E+02
 2.924682617E+01 1.012546197E-01 2.614431458E+02
 2.924682617E+01 1.066095978E-01 2.625776978E+02
 2.924682617E+01 1.119840965E-01 2.637543335E+02
 2.924682617E+01 1.173770055E-01 2.649707947E+02
 2.924682617E+01 1.227873415E-01 2.662248535E+02
 2.924682617E+01 1.282141656E-01 2.675142517E+02
 2.924682617E+01 1.336566061E-01 2.688366699E+02
 2.924682617E+01 1.391138583E-01 2.701898804E+02
 2.924682617E+01 1.445851475E-01 2.715716248E+02
 2.924682617E+01 1.500697285E-01 2.729796753E+02
 2.924682617E+01 1.555669606E-01 2.744118652E+02
 2.924682617E+01 1.610761583E-01 2.758660278E+02
 2.924682617E+01 1.665967256E-01 2.773400269E+02
 2.924682617E+01 1.721280813E-01 2.788318176E+02
 2.924682617E+01 1.776696742E-01 2.803393555E+02
 2.924682617E+01 1.832209527E-01 2.818607788E+02
 2.924682617E+01 1.887814403E-01 2.833942261E+02
 2.924682617E+01 1.943506300E-01 2.849378662E+02
 2.924682617E+01 1.999280900E-01 2.864900513E+02
 2.924682617E+01 2.055133283E-01 2.880490723E+02
 2.924682617E+01 2.111059576E-01 2.896134033E+02
 2.924682617E+01 2.167055905E-01 2.911814880E+02
 2.924682617E+01 2.223117799E-01 2.927518921E+02
 2.924682617E+01 2.279241830E-01 2.943232727E+02
 2.924682617E+01 2.335424274E-01 2.958942871E+02
 2.924682617E+01 2.391662002E-01 2.974636841E+02
 2.924682617E+01 2.447951138E-01 2.990303040E+02
 2.924682617E+01 2.504288852E-01 3.005929871E+02
 2.924682617E+01 2.560672164E-01 3.021506653E+02
 2.924682617E+01 2.617097497E-01 3.037023621E+02
 2.924682617E+01 2.673562467E-01 3.052471008E+02
 2.924682808E+01 2.730064392E-01 3.067839661E+02
 2.924682808E+01 2.786599994E-01 3.083121033E+02
 2.924682808E+01 2.843166888E-01 3.098306885E+02
 2.924682808E+01 2.899762690E-01 3.113389893E+02
 2.924682808E+01 2.956385016E-01 3.128362732E+02
 2.924682808E+01 3.013031185E-01 3.143218689E+02
 2.924682808E+01 3.069699109E-01 3.157951050E+02
 2.924682808E+01 3.126386404E-01 3.172554016E+02
 2.924682808E+01 3.183091283E-01 3.187021790E+02
 2.924682808E+01 3.239811063E-01 3.201349487E+02
 2.924682808E+01 3.296544254E-01 3.215531311E+02
 2.924682808E+01 3.353288770E-01 3.229563293E+02
 2.924682808E+01 3.410042226E-01 3.243440857E+02
 2.924682808E+01 3.466803133E-01 3.257159729E+02
 2.924682808E+01 3.523569703E-01 3.270715942E+02
 2.924682808E+01 3.580340445E-01 3.284106140E+02
 2.924682808E+01 3.637112975E-01 3.297326660E+02
 2.924682808E+01 3.693885803E-01 3.310374756E+02
 2.924682808E+01 3.750658035E-01 3.323247070E+02
 2.924682808E+01 3.807426989E-01 3.335941162E+02
 2.924682808E+01 3.864191771E-01 3.348454285E+02
 2.924682808E+01 3.920950890E-01 3.360783997E+02
 2.924682808E+01 3.977702558E-01 3.372928162E+02
 2.924682808E+01 4.034445286E-01 3.384884644E+02
 2.924682808E+01 4.091178477E-01 3.396651917E+02
 2.924682808E+01 4.147899747E-01 3.408227844E+02
 2.924682808E+01 4.204608202E-01 3.419611206E+02
 2.924682808E+01 4.261302650E-01 3.430799866E+02
 2.924682808E+01 4.317981601E-01 3.441793213E+02
 2.924682808E+01 4.374643862E-01 3.452589417E+02
 2.924682808E+01 4.431288540E-01 3.463187561E+02
 2.924682808E+01 4.487914145E-01 3.473587036E+02
 2.924682808E+01 4.544518888E-01 3.483786011E+02
 2.924682808E+01 4.601102769E-01 3.493784485E+02
 2.924682808E+01 4.657664299E-01 3.503581543E+02
 2.924682808E+01 4.714201987E-01 3.513176270E+02
 2.924682808E+01 4.770715535E-01 3.522568359E+02
 2.924682808E+01 4.827202857E-01 3.531757202E+02
 2.924682808E+01 4.883664250E-01 3.540742493E+02
 2.924682808E+01 4.940097332E-01 3.549523621E+02
 2.924682808E+01 4.996501803E-01 3.558100891E+02
 2.924682808E+01 5.052877665E-01 3.566473694E+02
 2.924682808E+01 5.109221935E-01 3.574641724E+02
 2.924682808E+01 5.165535212E-01 3.582605896E+02
 2.924682808E+01 5.221816301E-01 3.590365295E+02
 2.924682808E+01 5.278064013E-01 3.597921143E+02