# Planar shear case, w06, y=0
VARIABLES = "X"
"Y"
"U Velocity"
ZONE T="CFL3D"
  0.000000000E+00 0.000000000E+00 5.023877621E-01
 7.821894437E-02 0.000000000E+00 5.023145080E-01
 1.568456888E-01 0.000000000E+00 5.021593571E-01
 2.358823568E-01 0.000000000E+00 5.019933581E-01
 3.153310716E-01 0.000000000E+00 5.018317699E-01
 3.951940238E-01 0.000000000E+00 5.016833544E-01
 4.754733145E-01 0.000000000E+00 5.015512705E-01
 5.561711788E-01 0.000000000E+00 5.014364123E-01
 6.372897029E-01 0.000000000E+00 5.013376474E-01
 7.188312411E-01 0.000000000E+00 5.012533665E-01
 8.007978201E-01 0.000000000E+00 5.011811852E-01
 8.831917644E-01 0.000000000E+00 5.011194348E-01
 9.660152793E-01 0.000000000E+00 5.010662079E-01
 1.049270511E+00 0.000000000E+00 5.010200739E-01
 1.132959962E+00 0.000000000E+00 5.009799004E-01
 1.217085600E+00 0.000000000E+00 5.009445548E-01
 1.301649928E+00 0.000000000E+00 5.009133220E-01
 1.386654973E+00 0.000000000E+00 5.008854866E-01
 1.472103357E+00 0.000000000E+00 5.008608103E-01
 1.557997227E+00 0.000000000E+00 5.008386374E-01
 1.644338846E+00 0.000000000E+00 5.008185506E-01
 1.731130600E+00 0.000000000E+00 5.008002520E-01
 1.818374872E+00 0.000000000E+00 5.007835031E-01
 1.906073928E+00 0.000000000E+00 5.007680058E-01
 1.994230270E+00 0.000000000E+00 5.007535815E-01
 2.082846165E+00 0.000000000E+00 5.007400513E-01
 2.171924114E+00 0.000000000E+00 5.007276535E-01
 2.261466503E+00 0.000000000E+00 5.007159710E-01
 2.351475716E+00 0.000000000E+00 5.007050633E-01
 2.441954136E+00 0.000000000E+00 5.006948113E-01
 2.532904387E+00 0.000000000E+00 5.006849766E-01
 2.624328852E+00 0.000000000E+00 5.006756783E-01
 2.716229677E+00 0.000000000E+00 5.006665587E-01
 2.808609962E+00 0.000000000E+00 5.006578565E-01
 2.901471615E+00 0.000000000E+00 5.006498694E-01
 2.994817495E+00 0.000000000E+00 5.006424189E-01
 3.088649988E+00 0.000000000E+00 5.006353259E-01
 3.182971954E+00 0.000000000E+00 5.006285906E-01
 3.277785301E+00 0.000000000E+00 5.006221533E-01
 3.373093128E+00 0.000000000E+00 5.006158948E-01
 3.468897820E+00 0.000000000E+00 5.006098747E-01
 3.565201998E+00 0.000000000E+00 5.006039739E-01
 3.662008286E+00 0.000000000E+00 5.005984902E-01
 3.759319305E+00 0.000000000E+00 5.005932450E-01
 3.857137680E+00 0.000000000E+00 5.005882382E-01
 3.955466032E+00 0.000000000E+00 5.005833507E-01
 4.054306984E+00 0.000000000E+00 5.005786419E-01
 4.153663158E+00 0.000000000E+00 5.005739927E-01
 4.253537178E+00 0.000000000E+00 5.005692840E-01
 4.353932381E+00 0.000000000E+00 5.005646348E-01
 4.454850674E+00 0.000000000E+00 5.005605221E-01
 4.556295395E+00 0.000000000E+00 5.005565286E-01
 4.658268452E+00 0.000000000E+00 5.005527139E-01
 4.760773659E+00 0.000000000E+00 5.005489588E-01
 4.863812923E+00 0.000000000E+00 5.005453825E-01
 4.967389584E+00 0.000000000E+00 5.005418658E-01
 5.071506500E+00 0.000000000E+00 5.005382895E-01
 5.176166058E+00 0.000000000E+00 5.005348325E-01
 5.281371117E+00 0.000000000E+00 5.005315542E-01
 5.387124538E+00 0.000000000E+00 5.005284548E-01
 5.493429661E+00 0.000000000E+00 5.005254149E-01
 5.600288868E+00 0.000000000E+00 5.005223751E-01
 5.707705021E+00 0.000000000E+00 5.005193949E-01
 5.815681458E+00 0.000000000E+00 5.005162954E-01
 5.924220562E+00 0.000000000E+00 5.005130172E-01
 6.033325672E+00 0.000000000E+00 5.005096793E-01
 6.142999649E+00 0.000000000E+00 5.005066991E-01
 6.253245354E+00 0.000000000E+00 5.005038977E-01
 6.364065647E+00 0.000000000E+00 5.005012751E-01
 6.475464344E+00 0.000000000E+00 5.004986525E-01
 6.587443352E+00 0.000000000E+00 5.004960299E-01
 6.700006008E+00 0.000000000E+00 5.004934669E-01
 6.813155651E+00 0.000000000E+00 5.004907250E-01
 6.926895618E+00 0.000000000E+00 5.004879832E-01
 7.041227818E+00 0.000000000E+00 5.004854202E-01
 7.156156540E+00 0.000000000E+00 5.004829764E-01
 7.271684647E+00 0.000000000E+00 5.004805326E-01
 7.387814999E+00 0.000000000E+00 5.004780293E-01
 7.504550457E+00 0.000000000E+00 5.004755855E-01
 7.621894836E+00 0.000000000E+00 5.004730821E-01
 7.739850521E+00 0.000000000E+00 5.004702806E-01
 7.858421803E+00 0.000000000E+00 5.004674792E-01
 7.977611065E+00 0.000000000E+00 5.004649162E-01
 8.097421646E+00 0.000000000E+00 5.004625320E-01
 8.217856407E+00 0.000000000E+00 5.004601479E-01
 8.338919640E+00 0.000000000E+00 5.004577637E-01
 8.460614204E+00 0.000000000E+00 5.004554391E-01
 8.582942963E+00 0.000000000E+00 5.004529953E-01
 8.705908775E+00 0.000000000E+00 5.004504323E-01
 8.829516411E+00 0.000000000E+00 5.004478693E-01
 8.953768730E+00 0.000000000E+00 5.004454851E-01
 9.078668594E+00 0.000000000E+00 5.004431009E-01
 9.204219818E+00 0.000000000E+00 5.004407763E-01
 9.330425262E+00 0.000000000E+00 5.004384518E-01
 9.457288742E+00 0.000000000E+00 5.004360676E-01
 9.584813118E+00 0.000000000E+00 5.004335046E-01
 9.713003159E+00 0.000000000E+00 5.004307032E-01
 9.841861725E+00 0.000000000E+00 5.004277825E-01
 9.971391678E+00 0.000000000E+00 5.004252195E-01
 1.010159683E+01 0.000000000E+00 5.004228354E-01
 1.023248100E+01 0.000000000E+00 5.004205108E-01
 1.036404705E+01 0.000000000E+00 5.004181862E-01
 1.049629974E+01 0.000000000E+00 5.004157424E-01
 1.062924099E+01 0.000000000E+00 5.004134178E-01
 1.076287651E+01 0.000000000E+00 5.004107356E-01
 1.089720821E+01 0.000000000E+00 5.004080534E-01
 1.103223991E+01 0.000000000E+00 5.004056096E-01
 1.116797638E+01 0.000000000E+00 5.004031062E-01
 1.130441952E+01 0.000000000E+00 5.004006624E-01
 1.144157505E+01 0.000000000E+00 5.003982186E-01
 1.157944489E+01 0.000000000E+00 5.003956556E-01
 1.171803379E+01 0.000000000E+00 5.003930926E-01
 1.185734463E+01 0.000000000E+00 5.003901124E-01
 1.199738312E+01 0.000000000E+00 5.003871322E-01
 1.213815022E+01 0.000000000E+00 5.003844500E-01
 1.227965260E+01 0.000000000E+00 5.003820658E-01
 1.242189217E+01 0.000000000E+00 5.003804564E-01
 1.256487274E+01 0.000000000E+00 5.003762245E-01
 1.270859909E+01 0.000000000E+00 5.003520846E-01
 1.285307503E+01 0.000000000E+00 5.002813339E-01
 1.299830437E+01 0.000000000E+00 5.001496077E-01
 1.314428997E+01 0.000000000E+00 4.999612570E-01
 1.329103756E+01 0.000000000E+00 4.997267425E-01
 1.343855000E+01 0.000000000E+00 4.994543493E-01
 1.358683109E+01 0.000000000E+00 4.991483986E-01
 1.373588562E+01 0.000000000E+00 4.988101125E-01
 1.388571739E+01 0.000000000E+00 4.984408915E-01
 1.403633022E+01 0.000000000E+00 4.980417192E-01
 1.418772793E+01 0.000000000E+00 4.976129830E-01
 1.433991528E+01 0.000000000E+00 4.971545935E-01
 1.449289608E+01 0.000000000E+00 4.966669083E-01
 1.464667416E+01 0.000000000E+00 4.961504936E-01
 1.480125427E+01 0.000000000E+00 4.956054986E-01
 1.495664024E+01 0.000000000E+00 4.950320125E-01
 1.511283588E+01 0.000000000E+00 4.944301546E-01
 1.526984692E+01 0.000000000E+00 4.938006401E-01
 1.542767525E+01 0.000000000E+00 4.931436479E-01
 1.558632755E+01 0.000000000E+00 4.924598932E-01
 1.574580669E+01 0.000000000E+00 4.917500615E-01
 1.590611649E+01 0.000000000E+00 4.910145402E-01
 1.606726265E+01 0.000000000E+00 4.902541637E-01
 1.622924995E+01 0.000000000E+00 4.894696474E-01
 1.639208031E+01 0.000000000E+00 4.886617661E-01
 1.655575943E+01 0.000000000E+00 4.878313243E-01
 1.672029305E+01 0.000000000E+00 4.869788587E-01
 1.688568306E+01 0.000000000E+00 4.861057997E-01
 1.705193710E+01 0.000000000E+00 4.852133393E-01
 1.721905708E+01 0.000000000E+00 4.843022823E-01
 1.738704872E+01 0.000000000E+00 4.833734632E-01
 1.755591583E+01 0.000000000E+00 4.824279249E-01
 1.772566223E+01 0.000000000E+00 4.814668894E-01
 1.789629555E+01 0.000000000E+00 4.804913700E-01
 1.806781769E+01 0.000000000E+00 4.795021713E-01
 1.824023438E+01 0.000000000E+00 4.785005748E-01
 1.841354942E+01 0.000000000E+00 4.774879217E-01
 1.858776665E+01 0.000000000E+00 4.764652848E-01
 1.876289368E+01 0.000000000E+00 4.754335582E-01
 1.893893433E+01 0.000000000E+00 4.743939042E-01
 1.911589241E+01 0.000000000E+00 4.733472168E-01
 1.929377365E+01 0.000000000E+00 4.722944498E-01
 1.947258186E+01 0.000000000E+00 4.712367356E-01
 1.965232086E+01 0.000000000E+00 4.701751173E-01
 1.983299828E+01 0.000000000E+00 4.691107869E-01
 2.001461792E+01 0.000000000E+00 4.680452943E-01
 2.019718361E+01 0.000000000E+00 4.669802189E-01
 2.038070107E+01 0.000000000E+00 4.659156501E-01
 2.056517601E+01 0.000000000E+00 4.648503661E-01
 2.075061226E+01 0.000000000E+00 4.637851715E-01
 2.093701553E+01 0.000000000E+00 4.627228677E-01
 2.112438965E+01 0.000000000E+00 4.616663158E-01
 2.131274223E+01 0.000000000E+00 4.606176019E-01
 2.150207520E+01 0.000000000E+00 4.595776498E-01
 2.169239616E+01 0.000000000E+00 4.585470557E-01
 2.188371086E+01 0.000000000E+00 4.575259387E-01
 2.207602119E+01 0.000000000E+00 4.565142393E-01
 2.226933479E+01 0.000000000E+00 4.555115998E-01
 2.246365547E+01 0.000000000E+00 4.545173943E-01
 2.265898895E+01 0.000000000E+00 4.535316825E-01
 2.285534286E+01 0.000000000E+00 4.525543749E-01
 2.305271912E+01 0.000000000E+00 4.515848160E-01
 2.325112343E+01 0.000000000E+00 4.506226480E-01
 2.345056343E+01 0.000000000E+00 4.496676326E-01
 2.365104294E+01 0.000000000E+00 4.487194717E-01
 2.385256767E+01 0.000000000E+00 4.477779567E-01
 2.405514336E+01 0.000000000E+00 4.468426108E-01
 2.425877380E+01 0.000000000E+00 4.459134638E-01
 2.446346664E+01 0.000000000E+00 4.449905455E-01
 2.466922760E+01 0.000000000E+00 4.440735281E-01
 2.487606049E+01 0.000000000E+00 4.431622028E-01
 2.508397102E+01 0.000000000E+00 4.422564209E-01
 2.529296684E+01 0.000000000E+00 4.413559735E-01
 2.550305176E+01 0.000000000E+00 4.404607415E-01
 2.571423149E+01 0.000000000E+00 4.395713210E-01
 2.592651367E+01 0.000000000E+00 4.386868477E-01
 2.613990211E+01 0.000000000E+00 4.378071129E-01
 2.635440254E+01 0.000000000E+00 4.369327426E-01
 2.657002068E+01 0.000000000E+00 4.360633194E-01
 2.678676414E+01 0.000000000E+00 4.351988137E-01
 2.700463676E+01 0.000000000E+00 4.343391657E-01
 2.722364616E+01 0.000000000E+00 4.334843159E-01
 2.744379616E+01 0.000000000E+00 4.326340258E-01
 2.766509438E+01 0.000000000E+00 4.317883849E-01
 2.788754654E+01 0.000000000E+00 4.309475422E-01
 2.811115837E+01 0.000000000E+00 4.301113486E-01
 2.833593559E+01 0.000000000E+00 4.292797148E-01
 2.856188583E+01 0.000000000E+00 4.284525514E-01
 2.878901291E+01 0.000000000E+00 4.276299179E-01
 2.901732445E+01 0.000000000E+00 4.268116951E-01
 2.924682617E+01 0.000000000E+00 4.259976149E-01
 2.947752571E+01 0.000000000E+00 4.251880646E-01
 2.970942688E+01 0.000000000E+00 4.243831038E-01
 2.994253731E+01 0.000000000E+00 4.235825539E-01
 3.017686272E+01 0.000000000E+00 4.227863252E-01
 3.041241074E+01 0.000000000E+00 4.219943881E-01
 3.064918518E+01 0.000000000E+00 4.212068021E-01
 3.088719559E+01 0.000000000E+00 4.204234183E-01
 3.112644577E+01 0.000000000E+00 4.196441472E-01
 3.136694336E+01 0.000000000E+00 4.188691378E-01
 3.160869598E+01 0.000000000E+00 4.180984497E-01
 3.185170746E+01 0.000000000E+00 4.173319936E-01
 3.209598541E+01 0.000000000E+00 4.165697098E-01
 3.234154129E+01 0.000000000E+00 4.158115089E-01
 3.258837128E+01 0.000000000E+00 4.150574207E-01
 3.283649445E+01 0.000000000E+00 4.143073261E-01
 3.308590698E+01 0.000000000E+00 4.135615230E-01
 3.333662033E+01 0.000000000E+00 4.128196836E-01
 3.358864212E+01 0.000000000E+00 4.120818079E-01
 3.384197617E+01 0.000000000E+00 4.113481939E-01
 3.409663010E+01 0.000000000E+00 4.106186330E-01
 3.435261536E+01 0.000000000E+00 4.098930657E-01
 3.460993195E+01 0.000000000E+00 4.091714919E-01
 3.486859131E+01 0.000000000E+00 4.084539115E-01
 3.512860107E+01 0.000000000E+00 4.077401161E-01
 3.538996124E+01 0.000000000E+00 4.070303142E-01
 3.565268707E+01 0.000000000E+00 4.063245058E-01
 3.591678619E+01 0.000000000E+00 4.056226313E-01
 3.618225861E+01 0.000000000E+00 4.049246311E-01
 3.644911575E+01 0.000000000E+00 4.042304456E-01
 3.671736145E+01 0.000000000E+00 4.035401642E-01
 3.698700714E+01 0.000000000E+00 4.028536379E-01
 3.725806046E+01 0.000000000E+00 4.021708369E-01
 3.753052521E+01 0.000000000E+00 4.014918506E-01
 3.780441284E+01 0.000000000E+00 4.008167088E-01
 3.807972717E+01 0.000000000E+00 4.001454413E-01
 3.835647583E+01 0.000000000E+00 3.994778991E-01
 3.863466644E+01 0.000000000E+00 3.988140225E-01
 3.891431046E+01 0.000000000E+00 3.981539011E-01
 3.919541168E+01 0.000000000E+00 3.974974453E-01
 3.947797775E+01 0.000000000E+00 3.968445957E-01
 3.976201630E+01 0.000000000E+00 3.961954117E-01
 4.004753494E+01 0.000000000E+00 3.955499530E-01
 4.033454514E+01 0.000000000E+00 3.949080706E-01
 4.062304688E+01 0.000000000E+00 3.942697942E-01
 4.091305923E+01 0.000000000E+00 3.936350346E-01
 4.120457840E+01 0.000000000E+00 3.930038512E-01
 4.149761963E+01 0.000000000E+00 3.923760653E-01
 4.179218674E+01 0.000000000E+00 3.917524219E-01
 4.208829117E+01 0.000000000E+00 3.911320567E-01
 4.238594055E+01 0.000000000E+00 3.905148208E-01
 4.268513870E+01 0.000000000E+00 3.899012208E-01
 4.298590088E+01 0.000000000E+00 3.892910779E-01
 4.328822708E+01 0.000000000E+00 3.886844516E-01
 4.359213257E+01 0.000000000E+00 3.880812526E-01
 4.389762115E+01 0.000000000E+00 3.874814510E-01
 4.420470047E+01 0.000000000E+00 3.868850470E-01
 4.451338196E+01 0.000000000E+00 3.862919807E-01
 4.482367325E+01 0.000000000E+00 3.857023120E-01
 4.513558578E+01 0.000000000E+00 3.851160109E-01
 4.544911957E+01 0.000000000E+00 3.845330179E-01
 4.576428986E+01 0.000000000E+00 3.839533329E-01
 4.608110046E+01 0.000000000E+00 3.833768964E-01
 4.639956665E+01 0.000000000E+00 3.828037381E-01
 4.671969223E+01 0.000000000E+00 3.822338581E-01
 4.704148483E+01 0.000000000E+00 3.816671371E-01
 4.736495972E+01 0.000000000E+00 3.811036646E-01
 4.769011688E+01 0.000000000E+00 3.805434704E-01
 4.801697159E+01 0.000000000E+00 3.799864352E-01
 4.834552765E+01 0.000000000E+00 3.794324994E-01
 4.867579651E+01 0.000000000E+00 3.788818121E-01
 4.900778961E+01 0.000000000E+00 3.783342540E-01
 4.934151459E+01 0.000000000E+00 3.777897358E-01
 4.967697525E+01 0.000000000E+00 3.772482872E-01
 5.001418686E+01 0.000000000E+00 3.767099679E-01
 5.035315704E+01 0.000000000E+00 3.761747181E-01
 5.069389725E+01 0.000000000E+00 3.756425083E-01
 5.103641129E+01 0.000000000E+00 3.751133382E-01
 5.138071060E+01 0.000000000E+00 3.745871484E-01
 5.172680283E+01 0.000000000E+00 3.740638793E-01
 5.207470322E+01 0.000000000E+00 3.735438883E-01
 5.242441559E+01 0.000000000E+00 3.730267584E-01
 5.277595139E+01 0.000000000E+00 3.725123405E-01
 5.312931824E+01 0.000000000E+00 3.720009327E-01
 5.348453140E+01 0.000000000E+00 3.714925051E-01
 5.384159470E+01 0.000000000E+00 3.709869683E-01
 5.420051956E+01 0.000000000E+00 3.704842627E-01
 5.456131363E+01 0.000000000E+00 3.699844778E-01
 5.492398834E+01 0.000000000E+00 3.694875240E-01
 5.528855896E+01 0.000000000E+00 3.689934313E-01
 5.565502548E+01 0.000000000E+00 3.685020804E-01
 5.602340317E+01 0.000000000E+00 3.680135608E-01
 5.639370346E+01 0.000000000E+00 3.675277829E-01
 5.676593399E+01 0.000000000E+00 3.670448065E-01
 5.714010620E+01 0.000000000E+00 3.665646017E-01
 5.751622772E+01 0.000000000E+00 3.660870492E-01
 5.789431000E+01 0.000000000E+00 3.656123579E-01
 5.827436066E+01 0.000000000E+00 3.651402593E-01
 5.865639496E+01 0.000000000E+00 3.646708429E-01
 5.904042435E+01 0.000000000E+00 3.642041087E-01
 5.942645264E+01 0.000000000E+00 3.637399971E-01
 5.981449509E+01 0.000000000E+00 3.632785380E-01
 6.020455933E+01 0.000000000E+00 3.628196418E-01
 6.059665680E+01 0.000000000E+00 3.623634279E-01
 6.099079895E+01 0.000000000E+00 3.619098067E-01
 6.138699722E+01 0.000000000E+00 3.614587784E-01
 6.178525925E+01 0.000000000E+00 3.610102236E-01
 6.218559647E+01 0.000000000E+00 3.605642021E-01
 6.258802414E+01 0.000000000E+00 3.601207733E-01
 6.299254608E+01 0.000000000E+00 3.596797884E-01
 6.339918137E+01 0.000000000E+00 3.592412770E-01
 6.380793381E+01 0.000000000E+00 3.588053286E-01
 6.421881866E+01 0.000000000E+00 3.583719432E-01
 6.463184357E+01 0.000000000E+00 3.579410017E-01
 6.504702759E+01 0.000000000E+00 3.575123250E-01
 6.546437073E+01 0.000000000E+00 3.570860922E-01
 6.588388824E+01 0.000000000E+00 3.566621840E-01
 6.630559540E+01 0.000000000E+00 3.562407792E-01
 6.672949982E+01 0.000000000E+00 3.558216691E-01
 6.715561676E+01 0.000000000E+00 3.554049432E-01
 6.758395386E+01 0.000000000E+00 3.549906313E-01
 6.801452637E+01 0.000000000E+00 3.545786440E-01
 6.844734192E+01 0.000000000E+00 3.541689217E-01
 6.888241577E+01 0.000000000E+00 3.537614644E-01
 6.931975555E+01 0.000000000E+00 3.533563316E-01
 6.975937653E+01 0.000000000E+00 3.529534340E-01
 7.020128632E+01 0.000000000E+00 3.525528312E-01
 7.064550781E+01 0.000000000E+00 3.521544635E-01
 7.109204102E+01 0.000000000E+00 3.517584205E-01
 7.154090118E+01 0.000000000E+00 3.513645530E-01
 7.199209595E+01 0.000000000E+00 3.509728312E-01
 7.244564819E+01 0.000000000E+00 3.505832851E-01
 7.290156555E+01 0.000000000E+00 3.501958847E-01
 7.335986328E+01 0.000000000E+00 3.498106003E-01
 7.382054901E+01 0.000000000E+00 3.494275212E-01
 7.428363037E+01 0.000000000E+00 3.490466177E-01
 7.474913025E+01 0.000000000E+00 3.486678004E-01
 7.521705627E+01 0.000000000E+00 3.482911587E-01
 7.568742371E+01 0.000000000E+00 3.479164541E-01
 7.616024780E+01 0.000000000E+00 3.475438654E-01
 7.663552856E+01 0.000000000E+00 3.471733630E-01
 7.711328888E+01 0.000000000E+00 3.468048275E-01
 7.759354401E+01 0.000000000E+00 3.464384377E-01
 7.807630157E+01 0.000000000E+00 3.460741043E-01
 7.856156921E+01 0.000000000E+00 3.457117081E-01
 7.904937744E+01 0.000000000E+00 3.453513980E-01
 7.953971863E+01 0.000000000E+00 3.449929953E-01
 8.003262329E+01 0.000000000E+00 3.446364999E-01
 8.052809906E+01 0.000000000E+00 3.442820013E-01
 8.102615356E+01 0.000000000E+00 3.439294398E-01
 8.152680206E+01 0.000000000E+00 3.435787857E-01
 8.203006744E+01 0.000000000E+00 3.432300091E-01
 8.253594971E+01 0.000000000E+00 3.428832591E-01
 8.304447937E+01 0.000000000E+00 3.425383270E-01
 8.355564880E+01 0.000000000E+00 3.421952724E-01
 8.406948853E+01 0.000000000E+00 3.418540657E-01
 8.458601379E+01 0.000000000E+00 3.415147364E-01
 8.510522461E+01 0.000000000E+00 3.411772549E-01
 8.562714386E+01 0.000000000E+00 3.408415914E-01
 8.615177917E+01 0.000000000E+00 3.405077457E-01
 8.667915344E+01 0.000000000E+00 3.401757777E-01
 8.720928192E+01 0.000000000E+00 3.398455977E-01
 8.774217224E+01 0.000000000E+00 3.395171165E-01
 8.827783203E+01 0.000000000E+00 3.391903937E-01
 8.881629181E+01 0.000000000E+00 3.388654888E-01
 8.935755920E+01 0.000000000E+00 3.385422528E-01
 8.990164948E+01 0.000000000E+00 3.382207751E-01
 9.044857788E+01 0.000000000E+00 3.379010260E-01
 9.099835205E+01 0.000000000E+00 3.375830054E-01
 9.155099487E+01 0.000000000E+00 3.372666836E-01
 9.210652161E+01 0.000000000E+00 3.369520605E-01
 9.266493988E+01 0.000000000E+00 3.366390765E-01
 9.322627258E+01 0.000000000E+00 3.363277316E-01
 9.379052734E+01 0.000000000E+00 3.360180855E-01
 9.435772705E+01 0.000000000E+00 3.357101083E-01
 9.492788696E+01 0.000000000E+00 3.354038000E-01
 9.550101471E+01 0.000000000E+00 3.350989819E-01
 9.607713318E+01 0.000000000E+00 3.347958326E-01
 9.665625000E+01 0.000000000E+00 3.344942927E-01
 9.723839569E+01 0.000000000E+00 3.341943324E-01
 9.782357025E+01 0.000000000E+00 3.338959515E-01
 9.841179657E+01 0.000000000E+00 3.335990310E-01
 9.900308990E+01 0.000000000E+00 3.333037496E-01
 9.959746552E+01 0.000000000E+00 3.330100179E-01
 1.001949387E+02 0.000000000E+00 3.327177763E-01
 1.007955322E+02 0.000000000E+00 3.324270546E-01
 1.013992538E+02 0.000000000E+00 3.321378529E-01
 1.020061188E+02 0.000000000E+00 3.318502009E-01
 1.026161499E+02 0.000000000E+00 3.315640092E-01
 1.032293625E+02 0.000000000E+00 3.312793076E-01
 1.038457718E+02 0.000000000E+00 3.309960663E-01
 1.044653931E+02 0.000000000E+00 3.307142556E-01
 1.050882492E+02 0.000000000E+00 3.304339647E-01
 1.057143478E+02 0.000000000E+00 3.301551044E-01
 1.063437195E+02 0.000000000E+00 3.298776746E-01
 1.069763641E+02 0.000000000E+00 3.296016753E-01
 1.076123047E+02 0.000000000E+00 3.293270171E-01
 1.082515717E+02 0.000000000E+00 3.290537894E-01
 1.088941650E+02 0.000000000E+00 3.287819624E-01
 1.095401077E+02 0.000000000E+00 3.285115063E-01
 1.101894150E+02 0.000000000E+00 3.282424808E-01
 1.108421097E+02 0.000000000E+00 3.279747665E-01
 1.114982147E+02 0.000000000E+00 3.277083933E-01
 1.121577301E+02 0.000000000E+00 3.274433911E-01
 1.128206863E+02 0.000000000E+00 3.271797299E-01
 1.134871063E+02 0.000000000E+00 3.269173801E-01
 1.141569901E+02 0.000000000E+00 3.266564012E-01
 1.148303757E+02 0.000000000E+00 3.263967037E-01
 1.155072632E+02 0.000000000E+00 3.261382878E-01
 1.161876907E+02 0.000000000E+00 3.258812129E-01
 1.168716583E+02 0.000000000E+00 3.256253600E-01
 1.175591888E+02 0.000000000E+00 3.253707886E-01
 1.182503128E+02 0.000000000E+00 3.251174986E-01
 1.189450302E+02 0.000000000E+00 3.248654306E-01
 1.196433792E+02 0.000000000E+00 3.246146739E-01
 1.203453598E+02 0.000000000E+00 3.243650794E-01
 1.210510025E+02 0.000000000E+00 3.241167665E-01
 1.217603302E+02 0.000000000E+00 3.238696754E-01
 1.224733505E+02 0.000000000E+00 3.236237466E-01
 1.231900864E+02 0.000000000E+00 3.233790994E-01
 1.239105682E+02 0.000000000E+00 3.231356144E-01
 1.246347961E+02 0.000000000E+00 3.228932917E-01
 1.253628082E+02 0.000000000E+00 3.226521909E-01
 1.260946121E+02 0.000000000E+00 3.224122524E-01
 1.268302307E+02 0.000000000E+00 3.221735060E-01
 1.275696793E+02 0.000000000E+00 3.219358921E-01
 1.283129883E+02 0.000000000E+00 3.216994107E-01
 1.290601807E+02 0.000000000E+00 3.214641213E-01
 1.298112488E+02 0.000000000E+00 3.212299645E-01
 1.305662537E+02 0.000000000E+00 3.209968805E-01
 1.313251801E+02 0.000000000E+00 3.207649291E-01
 1.320880737E+02 0.000000000E+00 3.205341101E-01
 1.328549347E+02 0.000000000E+00 3.203043640E-01
 1.336257935E+02 0.000000000E+00 3.200757802E-01
 1.344006805E+02 0.000000000E+00 3.198482394E-01
 1.351796112E+02 0.000000000E+00 3.196218014E-01
 1.359625854E+02 0.000000000E+00 3.193964064E-01
 1.367496490E+02 0.000000000E+00 3.191720843E-01
 1.375408173E+02 0.000000000E+00 3.189488351E-01
 1.383361206E+02 0.000000000E+00 3.187266588E-01
 1.391355591E+02 0.000000000E+00 3.185054958E-01
 1.399391632E+02 0.000000000E+00 3.182853758E-01
 1.407469635E+02 0.000000000E+00 3.180663288E-01
 1.415589752E+02 0.000000000E+00 3.178482652E-01
 1.423752136E+02 0.000000000E+00 3.176312447E-01
 1.431957092E+02 0.000000000E+00 3.174152076E-01
 1.440204926E+02 0.000000000E+00 3.172001839E-01
 1.448495636E+02 0.000000000E+00 3.169862032E-01
 1.456829681E+02 0.000000000E+00 3.167731762E-01
 1.465207062E+02 0.000000000E+00 3.165611029E-01
 1.473628235E+02 0.000000000E+00 3.163500428E-01
 1.482093201E+02 0.000000000E+00 3.161399662E-01
 1.490602417E+02 0.000000000E+00 3.159308136E-01
 1.499155884E+02 0.000000000E+00 3.157226443E-01
 1.507753906E+02 0.000000000E+00 3.155154586E-01
 1.516396942E+02 0.000000000E+00 3.153091371E-01
 1.525084839E+02 0.000000000E+00 3.151038289E-01
 1.533818207E+02 0.000000000E+00 3.148994446E-01
 1.542597046E+02 0.000000000E+00 3.146959841E-01
 1.551421509E+02 0.000000000E+00 3.144934177E-01
 1.560292206E+02 0.000000000E+00 3.142918050E-01
 1.569208984E+02 0.000000000E+00 3.140910566E-01
 1.578172302E+02 0.000000000E+00 3.138912320E-01
 1.587182465E+02 0.000000000E+00 3.136922717E-01
 1.596239471E+02 0.000000000E+00 3.134942353E-01
 1.605343628E+02 0.000000000E+00 3.132970929E-01
 1.614495392E+02 0.000000000E+00 3.131008148E-01
 1.623694916E+02 0.000000000E+00 3.129054308E-01
 1.632942200E+02 0.000000000E+00 3.127109110E-01
 1.642237854E+02 0.000000000E+00 3.125172257E-01
 1.651581879E+02 0.000000000E+00 3.123243749E-01
 1.660974731E+02 0.000000000E+00 3.121324182E-01
 1.670416412E+02 0.000000000E+00 3.119412363E-01
 1.679907379E+02 0.000000000E+00 3.117509484E-01
 1.689447937E+02 0.000000000E+00 3.115615249E-01
 1.699038086E+02 0.000000000E+00 3.113728464E-01
 1.708678284E+02 0.000000000E+00 3.111850321E-01
 1.718368683E+02 0.000000000E+00 3.109980226E-01
 1.728109741E+02 0.000000000E+00 3.108118176E-01
 1.737901459E+02 0.000000000E+00 3.106264472E-01
 1.747744293E+02 0.000000000E+00 3.104418516E-01
 1.757638397E+02 0.000000000E+00 3.102580309E-01
 1.767584076E+02 0.000000000E+00 3.100750446E-01
 1.777581635E+02 0.000000000E+00 3.098927736E-01
 1.787631378E+02 0.000000000E+00 3.097112775E-01
 1.797733459E+02 0.000000000E+00 3.095306158E-01
 1.807888184E+02 0.000000000E+00 3.093506396E-01
 1.818095856E+02 0.000000000E+00 3.091714680E-01
 1.828356781E+02 0.000000000E+00 3.089931011E-01
 1.838671265E+02 0.000000000E+00 3.088154197E-01
 1.849039459E+02 0.000000000E+00 3.086385131E-01
 1.859461670E+02 0.000000000E+00 3.084623516E-01
 1.869938202E+02 0.000000000E+00 3.082869351E-01
 1.880469360E+02 0.000000000E+00 3.081123531E-01
 1.891055603E+02 0.000000000E+00 3.079384863E-01
 1.901696777E+02 0.000000000E+00 3.077654839E-01
 1.912393646E+02 0.000000000E+00 3.075933754E-01
 1.923146057E+02 0.000000000E+00 3.074222803E-01
 1.933954773E+02 0.000000000E+00 3.072522581E-01
 1.944819641E+02 0.000000000E+00 3.070839047E-01
 1.955741272E+02 0.000000000E+00 3.069171607E-01
 1.966719818E+02 0.000000000E+00 3.067533970E-01
 1.977755585E+02 0.000000000E+00 3.065986037E-01
 1.988848877E+02 0.000000000E+00 3.064474463E-01
 2.000000000E+02 0.000000000E+00 3.063703179E-01
ZONE T="FUN3D"
 0.000000000E+00 0.000000000E+00 5.024458170E-01
 7.821894437E-02 0.000000000E+00 5.023360252E-01
 1.568456888E-01 0.000000000E+00 5.022256970E-01
 2.358823568E-01 0.000000000E+00 5.021147728E-01
 3.153310716E-01 0.000000000E+00 5.020032525E-01
 3.951940238E-01 0.000000000E+00 5.018797517E-01
 4.754733145E-01 0.000000000E+00 5.017555356E-01
 5.561711788E-01 0.000000000E+00 5.016307235E-01
 6.372897029E-01 0.000000000E+00 5.015052557E-01
 7.188312411E-01 0.000000000E+00 5.014348030E-01
 8.007978201E-01 0.000000000E+00 5.013639331E-01
 8.831917644E-01 0.000000000E+00 5.012927651E-01
 9.660152793E-01 0.000000000E+00 5.012211800E-01
 1.049270511E+00 0.000000000E+00 5.011689663E-01
 1.132959962E+00 0.000000000E+00 5.011164546E-01
 1.217085600E+00 0.000000000E+00 5.010636449E-01
 1.301649928E+00 0.000000000E+00 5.010105968E-01
 1.386654973E+00 0.000000000E+00 5.009809732E-01
 1.472103357E+00 0.000000000E+00 5.009511709E-01
 1.557997227E+00 0.000000000E+00 5.009212494E-01
 1.644338846E+00 0.000000000E+00 5.008911490E-01
 1.731130600E+00 0.000000000E+00 5.008684993E-01
 1.818374872E+00 0.000000000E+00 5.008457899E-01
 1.906073928E+00 0.000000000E+00 5.008229017E-01
 1.994230270E+00 0.000000000E+00 5.007999539E-01
 2.082846165E+00 0.000000000E+00 5.007842183E-01
 2.171924114E+00 0.000000000E+00 5.007683635E-01
 2.261466503E+00 0.000000000E+00 5.007524490E-01
 2.351475716E+00 0.000000000E+00 5.007364154E-01
 2.441954136E+00 0.000000000E+00 5.007234216E-01
 2.532904387E+00 0.000000000E+00 5.007104278E-01
 2.624328852E+00 0.000000000E+00 5.006973147E-01
 2.716229677E+00 0.000000000E+00 5.006841421E-01
 2.808609962E+00 0.000000000E+00 5.006743670E-01
 2.901471615E+00 0.000000000E+00 5.006645322E-01
 2.994817495E+00 0.000000000E+00 5.006546974E-01
 3.088649988E+00 0.000000000E+00 5.006447434E-01
 3.182971954E+00 0.000000000E+00 5.006363988E-01
 3.277785301E+00 0.000000000E+00 5.006279945E-01
 3.373093128E+00 0.000000000E+00 5.006195307E-01
 3.468897820E+00 0.000000000E+00 5.006110668E-01
 3.565201998E+00 0.000000000E+00 5.006041527E-01
 3.662008286E+00 0.000000000E+00 5.005971789E-01
 3.759319305E+00 0.000000000E+00 5.005902052E-01
 3.857137680E+00 0.000000000E+00 5.005831718E-01
 3.955466032E+00 0.000000000E+00 5.005771518E-01
 4.054306984E+00 0.000000000E+00 5.005710721E-01
 4.153663158E+00 0.000000000E+00 5.005649924E-01
 4.253537178E+00 0.000000000E+00 5.005588531E-01
 4.353932381E+00 0.000000000E+00 5.005539656E-01
 4.454850674E+00 0.000000000E+00 5.005490184E-01
 4.556295395E+00 0.000000000E+00 5.005440712E-01
 4.658268452E+00 0.000000000E+00 5.005391240E-01
 4.760773659E+00 0.000000000E+00 5.005347133E-01
 4.863812923E+00 0.000000000E+00 5.005302429E-01
 4.967389584E+00 0.000000000E+00 5.005257726E-01
 5.071506500E+00 0.000000000E+00 5.005212426E-01
 5.176166058E+00 0.000000000E+00 5.005172491E-01
 5.281371117E+00 0.000000000E+00 5.005131960E-01
 5.387124538E+00 0.000000000E+00 5.005091429E-01
 5.493429661E+00 0.000000000E+00 5.005050898E-01
 5.600288868E+00 0.000000000E+00 5.005012751E-01
 5.707705021E+00 0.000000000E+00 5.004974604E-01
 5.815681458E+00 0.000000000E+00 5.004936457E-01
 5.924220562E+00 0.000000000E+00 5.004897714E-01
 6.033325672E+00 0.000000000E+00 5.004866719E-01
 6.142999649E+00 0.000000000E+00 5.004835129E-01
 6.253245354E+00 0.000000000E+00 5.004803538E-01
 6.364065647E+00 0.000000000E+00 5.004771948E-01
 6.475464344E+00 0.000000000E+00 5.004741549E-01
 6.587443352E+00 0.000000000E+00 5.004711151E-01
 6.700006008E+00 0.000000000E+00 5.004680753E-01
 6.813155651E+00 0.000000000E+00 5.004649758E-01
 6.926895618E+00 0.000000000E+00 5.004620552E-01
 7.041227818E+00 0.000000000E+00 5.004591346E-01
 7.156156540E+00 0.000000000E+00 5.004562140E-01
 7.271684647E+00 0.000000000E+00 5.004532337E-01
 7.387814999E+00 0.000000000E+00 5.004503131E-01
 7.504550457E+00 0.000000000E+00 5.004474521E-01
 7.621894836E+00 0.000000000E+00 5.004444718E-01
 7.739850521E+00 0.000000000E+00 5.004415512E-01
 7.858421803E+00 0.000000000E+00 5.004389882E-01
 7.977611065E+00 0.000000000E+00 5.004363656E-01
 8.097421646E+00 0.000000000E+00 5.004337430E-01
 8.217856407E+00 0.000000000E+00 5.004311204E-01
 8.338919640E+00 0.000000000E+00 5.004284978E-01
 8.460614204E+00 0.000000000E+00 5.004258156E-01
 8.582942963E+00 0.000000000E+00 5.004231334E-01
 8.705908775E+00 0.000000000E+00 5.004204512E-01
 8.829516411E+00 0.000000000E+00 5.004177690E-01
 8.953768730E+00 0.000000000E+00 5.004150867E-01
 9.078668594E+00 0.000000000E+00 5.004124045E-01
 9.204219818E+00 0.000000000E+00 5.004097223E-01
 9.330425262E+00 0.000000000E+00 5.004069209E-01
 9.457288742E+00 0.000000000E+00 5.004040599E-01
 9.584813118E+00 0.000000000E+00 5.004012585E-01
 9.713003159E+00 0.000000000E+00 5.003983974E-01