# Planar shear case, w06, x=95.501
VARIABLES = "X"
"Y"
"U Velocity"
ZONE T="CFL3D"
 9.550101471E+01 0.000000000E+00 3.350989819E-01
 9.550101471E+01 3.408005228E-03 3.350987434E-01
 9.550101471E+01 7.532086689E-03 3.350978196E-01
 9.550101471E+01 1.229701098E-02 3.350959718E-01
 9.550101471E+01 1.762626879E-02 3.350928724E-01
 9.550101471E+01 2.345188335E-02 3.350881934E-01
 9.550101471E+01 2.971539460E-02 3.350816965E-01
 9.550101471E+01 3.636940196E-02 3.350732028E-01
 9.550101471E+01 4.337535053E-02 3.350623250E-01
 9.550101471E+01 5.070259795E-02 3.350489736E-01
 9.550101471E+01 5.832638219E-02 3.350328207E-01
 9.550101471E+01 6.622669101E-02 3.350137770E-01
 9.550101471E+01 7.438711077E-02 3.349915743E-01
 9.550101471E+01 8.279412240E-02 3.349660039E-01
 9.550101471E+01 9.143626690E-02 3.349369466E-01
 9.550101471E+01 1.003037915E-01 3.349041045E-01
 9.550101471E+01 1.093881652E-01 3.348673880E-01
 9.550101471E+01 1.186819300E-01 3.348266482E-01
 9.550101471E+01 1.281783730E-01 3.347815871E-01
 9.550101471E+01 1.378714591E-01 3.347321451E-01
 9.550101471E+01 1.477556378E-01 3.346780837E-01
 9.550101471E+01 1.578258425E-01 3.346192837E-01
 9.550101471E+01 1.680773050E-01 3.345555663E-01
 9.550101471E+01 1.785056740E-01 3.344868422E-01
 9.550101471E+01 1.891067624E-01 3.344129622E-01
 9.550101471E+01 1.998767108E-01 3.343336880E-01
 9.550101471E+01 2.108118236E-01 3.342489898E-01
 9.550101471E+01 2.219086140E-01 3.341587484E-01
 9.550101471E+01 2.331637591E-01 3.340627551E-01
 9.550101471E+01 2.445741147E-01 3.339609206E-01
 9.550101471E+01 2.561366260E-01 3.338532150E-01
 9.550101471E+01 2.678484321E-01 3.337394595E-01
 9.550101471E+01 2.797067165E-01 3.336195946E-01
 9.550101471E+01 2.917088866E-01 3.334934711E-01
 9.550101471E+01 3.038523793E-01 3.333611190E-01
 9.550101471E+01 3.161347210E-01 3.332223594E-01
 9.550101471E+01 3.285535276E-01 3.330771923E-01
 9.550101471E+01 3.411065936E-01 3.329255283E-01
 9.550101471E+01 3.537916243E-01 3.327673078E-01
 9.550101471E+01 3.666065633E-01 3.326025009E-01
 9.550101471E+01 3.795493245E-01 3.324310780E-01
 9.550101471E+01 3.926179111E-01 3.322529495E-01
 9.550101471E+01 4.058104753E-01 3.320680857E-01
 9.550101471E+01 4.191250503E-01 3.318765163E-01
 9.550101471E+01 4.325598776E-01 3.316781819E-01
 9.550101471E+01 4.461132288E-01 3.314730525E-01
 9.550101471E+01 4.597833753E-01 3.312612474E-01
 9.550101471E+01 4.735686183E-01 3.310425878E-01
 9.550101471E+01 4.874674082E-01 3.308171630E-01
 9.550101471E+01 5.014781952E-01 3.305849731E-01
 9.550101471E+01 5.155993700E-01 3.303460181E-01
 9.550101471E+01 5.298295617E-01 3.301003575E-01
 9.550101471E+01 5.441672802E-01 3.298479915E-01
 9.550101471E+01 5.586110950E-01 3.295889199E-01
 9.550101471E+01 5.731596351E-01 3.293232024E-01
 9.550101471E+01 5.878115892E-01 3.290508687E-01
 9.550101471E+01 6.025656462E-01 3.287719488E-01
 9.550101471E+01 6.174204946E-01 3.284865022E-01
 9.550101471E+01 6.323748827E-01 3.281945586E-01
 9.550101471E+01 6.474276781E-01 3.278961778E-01
 9.550101471E+01 6.625775695E-01 3.275913894E-01
 9.550101471E+01 6.778234839E-01 3.272802830E-01
 9.550101471E+01 6.931642890E-01 3.269629478E-01
 9.550101471E+01 7.085987926E-01 3.266393244E-01
 9.550101471E+01 7.241259813E-01 3.263095915E-01
 9.550101471E+01 7.397447228E-01 3.259737194E-01
 9.550101471E+01 7.554539442E-01 3.256318867E-01
 9.550101471E+01 7.712527514E-01 3.252840936E-01
 9.550101471E+01 7.871400118E-01 3.249304295E-01
 9.550101471E+01 8.031147718E-01 3.245709538E-01
 9.550101471E+01 8.191761374E-01 3.242057562E-01
 9.550101471E+01 8.353230357E-01 3.238349259E-01
 9.550101471E+01 8.515545726E-01 3.234585226E-01
 9.550101471E+01 8.678699136E-01 3.230766058E-01
 9.550101471E+01 8.842681050E-01 3.226892650E-01
 9.550101471E+01 9.007482529E-01 3.222966194E-01
 9.550101471E+01 9.173095226E-01 3.218987584E-01
 9.550101471E+01 9.339510202E-01 3.214957118E-01
 9.550101471E+01 9.506719112E-01 3.210876286E-01
 9.550101471E+01 9.674714208E-01 3.206744790E-01
 9.550101471E+01 9.843486547E-01 3.202564716E-01
 9.550101471E+01 1.001302958E+00 3.198336959E-01
 9.550101471E+01 1.018333435E+00 3.194061518E-01
 9.550101471E+01 1.035439491E+00 3.189739883E-01
 9.550101471E+01 1.052619934E+00 3.185372949E-01
 9.550101471E+01 1.069874525E+00 3.180961013E-01
 9.550101471E+01 1.087202311E+00 3.176505566E-01
 9.550101471E+01 1.104602575E+00 3.172007203E-01
 9.550101471E+01 1.122074604E+00 3.167467415E-01
 9.550101471E+01 1.139617682E+00 3.162886500E-01
 9.550101471E+01 1.157231212E+00 3.158265352E-01
 9.550101471E+01 1.174914360E+00 3.153605461E-01
 9.550101471E+01 1.192666531E+00 3.148906827E-01
 9.550101471E+01 1.210487247E+00 3.144170940E-01
 9.550101471E+01 1.228375554E+00 3.139399290E-01
 9.550101471E+01 1.246330976E+00 3.134591579E-01
 9.550101471E+01 1.264352918E+00 3.129749596E-01
 9.550101471E+01 1.282440662E+00 3.124873638E-01
 9.550101471E+01 1.300593615E+00 3.119965494E-01
 9.550101471E+01 1.318811297E+00 3.115024865E-01
 9.550101471E+01 1.337092996E+00 3.110053837E-01
 9.550101471E+01 1.355437994E+00 3.105052412E-01
 9.550101471E+01 1.373845935E+00 3.100022078E-01
 9.550101471E+01 1.392316222E+00 3.094963431E-01
 9.550101471E+01 1.410848141E+00 3.089877665E-01
 9.550102234E+01 1.429441214E+00 3.084765375E-01
 9.550102234E+01 1.448094964E+00 3.079627752E-01
 9.550102234E+01 1.466808915E+00 3.074465394E-01
 9.550102234E+01 1.485582232E+00 3.069279194E-01
 9.550102234E+01 1.504414558E+00 3.064070344E-01
 9.550102234E+01 1.523305416E+00 3.058839738E-01
 9.550102234E+01 1.542254210E+00 3.053587675E-01
 9.550102234E+01 1.561260462E+00 3.048315644E-01
 9.550102234E+01 1.580323696E+00 3.043024540E-01
 9.550102234E+01 1.599443316E+00 3.037714362E-01
 9.550102234E+01 1.618618965E+00 3.032386899E-01
 9.550102234E+01 1.637850046E+00 3.027042747E-01
 9.550102234E+01 1.657136202E+00 3.021683097E-01
 9.550102234E+01 1.676476717E+00 3.016308248E-01
 9.550102234E+01 1.695871353E+00 3.010919094E-01
 9.550102234E+01 1.715319753E+00 3.005516231E-01
 9.550102234E+01 1.734821081E+00 3.000101745E-01
 9.550102234E+01 1.754375219E+00 2.994675338E-01
 9.550102234E+01 1.773981452E+00 2.989237607E-01
 9.550102234E+01 1.793639541E+00 2.983790636E-01
 9.550102234E+01 1.813348770E+00 2.978334427E-01
 9.550102234E+01 1.833109260E+00 2.972869873E-01
 9.550102234E+01 1.852920055E+00 2.967408895E-01
 9.550102234E+01 1.872613549E+00 2.961976230E-01
 9.550102234E+01 1.892190099E+00 2.956583202E-01
 9.550102234E+01 1.911649585E+00 2.951230407E-01
 9.550102234E+01 1.930992603E+00 2.945918143E-01
 9.550102234E+01 1.950219035E+00 2.940647006E-01
 9.550102234E+01 1.969329119E+00 2.935417295E-01
 9.550102234E+01 1.988323092E+00 2.930228710E-01
 9.550102234E+01 2.007201195E+00 2.925082147E-01
 9.550102234E+01 2.025963545E+00 2.919977605E-01
 9.550102234E+01 2.044610739E+00 2.914915383E-01
 9.550102234E+01 2.063142776E+00 2.909895480E-01
 9.550102234E+01 2.081559896E+00 2.904917896E-01
 9.550102234E+01 2.099862576E+00 2.899982929E-01
 9.550102234E+01 2.118051052E+00 2.895091176E-01
 9.550102234E+01 2.136125326E+00 2.890241444E-01
 9.550102234E+01 2.154086113E+00 2.885434628E-01
 9.550102234E+01 2.171933651E+00 2.880671024E-01
 9.550102234E+01 2.189667940E+00 2.875949740E-01
 9.550102234E+01 2.207289696E+00 2.871271968E-01
 9.550102234E+01 2.224799156E+00 2.866636515E-01
 9.550102234E+01 2.242196560E+00 2.862044275E-01
 9.550102234E+01 2.259482384E+00 2.857494056E-01
 9.550102234E+01 2.276656866E+00 2.852987051E-01
 9.550102234E+01 2.293720722E+00 2.848522365E-01
 9.550102234E+01 2.310673714E+00 2.844100296E-01
 9.550102234E+01 2.327516794E+00 2.839720547E-01
 9.550102234E+01 2.344250202E+00 2.835382521E-01
 9.550102234E+01 2.360874176E+00 2.831086814E-01
 9.550102234E+01 2.377389193E+00 2.826832831E-01
 9.550102234E+01 2.393795729E+00 2.822620869E-01
 9.550102234E+01 2.410094023E+00 2.818450332E-01
 9.550102234E+01 2.426284790E+00 2.814321220E-01
 9.550102234E+01 2.442368031E+00 2.810232937E-01
 9.550102234E+01 2.458344698E+00 2.806186080E-01
 9.550102234E+01 2.474214792E+00 2.802179754E-01
 9.550102234E+01 2.489978790E+00 2.798213661E-01
 9.550102234E+01 2.505637407E+00 2.794288695E-01
 9.550102234E+01 2.521190882E+00 2.790402770E-01
 9.550102234E+01 2.536639452E+00 2.786557078E-01
 9.550102234E+01 2.551984072E+00 2.782751322E-01
 9.550102234E+01 2.567224979E+00 2.778984606E-01
 9.550102234E+01 2.582362413E+00 2.775256932E-01
 9.550102234E+01 2.597397089E+00 2.771568000E-01
 9.550102234E+01 2.612329483E+00 2.767917812E-01
 9.550102234E+01 2.627159595E+00 2.764305770E-01
 9.550102234E+01 2.641888380E+00 2.760731280E-01
 9.550102234E+01 2.656516314E+00 2.757194936E-01
 9.550102234E+01 2.671043634E+00 2.753695846E-01
 9.550102234E+01 2.685471058E+00 2.750233710E-01
 9.550102234E+01 2.699798822E+00 2.746808529E-01
 9.550102234E+01 2.714027405E+00 2.743420303E-01
 9.550102234E+01 2.728157282E+00 2.740067840E-01
 9.550102234E+01 2.742189169E+00 2.736751735E-01
 9.550102234E+01 2.756123304E+00 2.733470798E-01
 9.550102234E+01 2.769960403E+00 2.730225325E-01
 9.550102234E+01 2.783700705E+00 2.727014720E-01
 9.550102234E+01 2.797344923E+00 2.723833919E-01
 9.550102234E+01 2.810893536E+00 2.720661461E-01
 9.550102234E+01 2.824346781E+00 2.717459798E-01
 9.550102234E+01 2.837705374E+00 2.714190483E-01
 9.550102234E+01 2.850969553E+00 2.710833549E-01
 9.550102234E+01 2.864140272E+00 2.707392275E-01
 9.550102234E+01 2.877217531E+00 2.703886330E-01
 9.550102234E+01 2.890202045E+00 2.700342834E-01
 9.550102234E+01 2.903094530E+00 2.696791887E-01
 9.550102234E+01 2.915894985E+00 2.693258226E-01
 9.550102234E+01 2.928604126E+00 2.689760327E-01
 9.550102234E+01 2.941222429E+00 2.686310410E-01
 9.550102234E+01 2.953750849E+00 2.682913244E-01
 9.550102234E+01 2.966188908E+00 2.679569125E-01
 9.550102234E+01 2.978538275E+00 2.676275969E-01
 9.550102234E+01 2.990798235E+00 2.673029602E-01
 9.550102234E+01 3.002970457E+00 2.669826746E-01
 9.550102234E+01 3.015054464E+00 2.666663826E-01
 9.550102234E+01 3.027051210E+00 2.663538456E-01
 9.550102234E+01 3.038961172E+00 2.660449743E-01
 9.550102234E+01 3.050784826E+00 2.657397389E-01
 9.550102234E+01 3.062522650E+00 2.654381394E-01
 9.550102234E+01 3.074175119E+00 2.651402056E-01
 9.550102234E+01 3.085742950E+00 2.648460269E-01
 9.550102234E+01 3.097225904E+00 2.645556927E-01
 9.550102234E+01 3.108625650E+00 2.642692626E-01
 9.550102234E+01 3.119941473E+00 2.639867365E-01
 9.550102234E+01 3.131174564E+00 2.637082338E-01
 9.550102234E+01 3.142325401E+00 2.634336650E-01
 9.550102234E+01 3.153393984E+00 2.631630599E-01
 9.550102234E+01 3.164381504E+00 2.628964484E-01
 9.550102234E+01 3.175287724E+00 2.626337707E-01
 9.550102234E+01 3.186113596E+00 2.623750865E-01
 9.550102234E+01 3.196859598E+00 2.621203363E-01
 9.550102234E+01 3.207526207E+00 2.618695199E-01
 9.550102234E+01 3.218113661E+00 2.616226077E-01
 9.550102234E+01 3.228622675E+00 2.613796592E-01
 9.550102234E+01 3.239053488E+00 2.611405551E-01
 9.550102234E+01 3.249406815E+00 2.609054148E-01
 9.550102234E+01 3.259682894E+00 2.606741488E-01
 9.550102234E+01 3.269882679E+00 2.604467571E-01
 9.550102234E+01 3.280006170E+00 2.602232099E-01
 9.550102234E+01 3.290054083E+00 2.600035369E-01
 9.550102234E+01 3.300026655E+00 2.597876787E-01
 9.550102234E+01 3.309924603E+00 2.595756352E-01
 9.550102234E+01 3.319748163E+00 2.593673468E-01
 9.550102234E+01 3.329498053E+00 2.591628432E-01
 9.550102234E+01 3.339174509E+00 2.589620948E-01
 9.550102234E+01 3.348778009E+00 2.587650716E-01
 9.550102234E+01 3.358309746E+00 2.585717440E-01
 9.550102234E+01 3.367768764E+00 2.583820820E-01
 9.550102234E+01 3.377156496E+00 2.581960857E-01
 9.550102234E+01 3.386473656E+00 2.580137253E-01
 9.550102234E+01 3.395719767E+00 2.578349411E-01
 9.550102234E+01 3.404896021E+00 2.576597333E-01
 9.550102234E+01 3.414002419E+00 2.574881017E-01
 9.550102234E+01 3.423039913E+00 2.573199570E-01
 9.550102234E+01 3.432008505E+00 2.571553290E-01
 9.550102234E+01 3.440908909E+00 2.569941580E-01
 9.550102234E+01 3.449741364E+00 2.568364739E-01
 9.550102234E+01 3.458506107E+00 2.566821873E-01
 9.550102234E+01 3.467204094E+00 2.565312982E-01
 9.550102234E+01 3.475835800E+00 2.563838065E-01
 9.550102234E+01 3.484401226E+00 2.562396228E-01
 9.550102234E+01 3.492901325E+00 2.560987771E-01
 9.550102234E+01 3.501335621E+00 2.559612393E-01
 9.550102234E+01 3.509705782E+00 2.558269501E-01
 9.550102234E+01 3.518011093E+00 2.556959391E-01
 9.550102234E+01 3.526252747E+00 2.555681169E-01
 9.550102234E+01 3.534430504E+00 2.554435730E-01
 9.550102234E+01 3.542545795E+00 2.553221881E-01
 9.550102234E+01 3.550597906E+00 2.552039027E-01
 9.550102234E+01 3.558588266E+00 2.550885379E-01
 9.550102234E+01 3.566601753E+00 2.549753487E-01
 9.550102234E+01 3.574653387E+00 2.548640668E-01
 9.550102234E+01 3.582746506E+00 2.547546029E-01
 9.550102234E+01 3.590885162E+00 2.546469569E-01
 9.550102234E+01 3.599074841E+00 2.545411885E-01
 9.550102234E+01 3.607318878E+00 2.544372380E-01
 9.550102234E+01 3.615621805E+00 2.543352544E-01
 9.550102234E+01 3.623987913E+00 2.542351484E-01
 9.550102234E+01 3.632421970E+00 2.541369498E-01
 9.550102234E+01 3.640927553E+00 2.540407181E-01
 9.550102234E+01 3.649509192E+00 2.539463341E-01
 9.550102234E+01 3.658171654E+00 2.538536489E-01
 9.550102234E+01 3.666918755E+00 2.537625134E-01
 9.550102234E+01 3.675755262E+00 2.536728978E-01
 9.550102234E+01 3.684684992E+00 2.535849214E-01
 9.550102234E+01 3.693712473E+00 2.534984350E-01
 9.550102234E+01 3.702842951E+00 2.534135878E-01
 9.550102234E+01 3.712080479E+00 2.533308566E-01
 9.550102234E+01 3.721429586E+00 2.532506883E-01
 9.550102234E+01 3.730895042E+00 2.531735897E-01
 9.550102234E+01 3.740481853E+00 2.531001866E-01
 9.550102234E+01 3.750194073E+00 2.530311048E-01
 9.550102234E+01 3.760037184E+00 2.529669702E-01
 9.550102234E+01 3.770015240E+00 2.529085279E-01
 9.550102234E+01 3.780133963E+00 2.528562844E-01
 9.550102234E+01 3.790398359E+00 2.528105974E-01
 9.550102234E+01 3.800812960E+00 2.527718246E-01
 9.550102234E+01 3.811383486E+00 2.527399659E-01
 9.550102234E+01 3.822115660E+00 2.527148128E-01
 9.550102234E+01 3.833013773E+00 2.526960075E-01
 9.550102234E+01 3.844083548E+00 2.526828349E-01
 9.550102234E+01 3.855331182E+00 2.526744902E-01
 9.550102234E+01 3.866761684E+00 2.526701093E-01
 9.550102234E+01 3.878381014E+00 2.526686490E-01
 9.550102234E+01 3.890195131E+00 2.526692450E-01
 9.550102234E+01 3.902209759E+00 2.526710927E-01
 9.550102234E+01 3.914431572E+00 2.526734471E-01
 9.550102234E+01 3.926865816E+00 2.526758313E-01
 9.550102234E+01 3.939519405E+00 2.526779175E-01
 9.550102234E+01 3.952398777E+00 2.526795864E-01
 9.550102234E+01 3.965510130E+00 2.526806891E-01
 9.550102234E+01 3.978860378E+00 2.526813149E-01
 9.550102234E+01 3.992456436E+00 2.526815832E-01
 9.550102234E+01 4.006305218E+00 2.526816130E-01
 9.550102234E+01 4.020412922E+00 2.526814938E-01
 9.550102234E+01 4.034788132E+00 2.526813149E-01
 9.550102234E+01 4.049437046E+00 2.526811659E-01
 9.550102234E+01 4.064368248E+00 2.526810467E-01
 9.550102234E+01 4.079587936E+00 2.526810169E-01
 9.550102234E+01 4.095105648E+00 2.526810467E-01
 9.550102234E+01 4.110928535E+00 2.526810765E-01
 9.550102234E+01 4.127064228E+00 2.526811361E-01
 9.550102234E+01 4.143521786E+00 2.526811957E-01
 9.550102234E+01 4.160309315E+00 2.526812553E-01
 9.550102234E+01 4.177435875E+00 2.526813149E-01
 9.550102234E+01 4.194910049E+00 2.526813745E-01
 9.550102234E+01 4.212740421E+00 2.526814342E-01
 9.550102234E+01 4.230937481E+00 2.526814938E-01
 9.550102234E+01 4.249509335E+00 2.526815534E-01
 9.550102234E+01 4.268465996E+00 2.526816130E-01
 9.550102234E+01 4.287817478E+00 2.526816726E-01
 9.550102234E+01 4.307573318E+00 2.526817322E-01
 9.550102234E+01 4.327744961E+00 2.526817918E-01
 9.550102997E+01 4.348341465E+00 2.526818216E-01
 9.550102997E+01 4.369374275E+00 2.526818812E-01
 9.550102997E+01 4.390854359E+00 2.526819408E-01
 9.550102997E+01 4.412792683E+00 2.526820302E-01
 9.550102997E+01 4.435201168E+00 2.526820898E-01
 9.550102997E+01 4.458090782E+00 2.526821792E-01
 9.550102997E+01 4.481473446E+00 2.526822388E-01
 9.550102997E+01 4.505362034E+00 2.526822984E-01
 9.550102997E+01 4.529768467E+00 2.526823580E-01
 9.550102997E+01 4.554705620E+00 2.526824176E-01
 9.550102997E+01 4.580186844E+00 2.526825070E-01
 9.550102997E+01 4.606224537E+00 2.526825666E-01
 9.550102997E+01 4.632833481E+00 2.526826560E-01
 9.550102997E+01 4.660027027E+00 2.526827157E-01
 9.550102997E+01 4.687819004E+00 2.526828051E-01
 9.550102997E+01 4.716224670E+00 2.526828647E-01
 9.550102997E+01 4.745258331E+00 2.526829839E-01
 9.550102997E+01 4.774935722E+00 2.526830733E-01
 9.550102997E+01 4.805271626E+00 2.526831329E-01
 9.550102997E+01 4.836282730E+00 2.526832223E-01
 9.550102997E+01 4.867985249E+00 2.526833117E-01
 9.550102997E+01 4.900394917E+00 2.526834309E-01
 9.550102997E+01 4.933529854E+00 2.526835203E-01
 9.550102997E+01 4.967407227E+00 2.526836097E-01
 9.550102997E+01 5.002043724E+00 2.526836991E-01
 9.550102997E+01 5.037458897E+00 2.526837885E-01
 9.550102997E+01 5.073670864E+00 2.526839375E-01
 9.550102997E+01 5.110698223E+00 2.526840270E-01
 9.550102997E+01 5.148561478E+00 2.526841164E-01
 9.550102997E+01 5.187279224E+00 2.526842356E-01
 9.550102997E+01 5.226872921E+00 2.526843548E-01
 9.550102997E+01 5.267363071E+00 2.526844740E-01
 9.550102997E+01 5.308770657E+00 2.526845932E-01
 9.550102997E+01 5.351118088E+00 2.526847124E-01
 9.550102997E+01 5.394426823E+00 2.526848316E-01
 9.550102997E+01 5.438720703E+00 2.526849508E-01
 9.550102997E+01 5.484022617E+00 2.526850700E-01
 9.550102997E+01 5.530356407E+00 2.526851892E-01
 9.550102997E+01 5.577746391E+00 2.526853383E-01
 9.550102997E+01 5.626217842E+00 2.526854575E-01
 9.550102997E+01 5.675796509E+00 2.526856065E-01
 9.550102997E+01 5.726508141E+00 2.526857555E-01
 9.550102997E+01 5.778379440E+00 2.526859045E-01
 9.550102997E+01 5.831439018E+00 2.526860535E-01
 9.550102997E+01 5.885713577E+00 2.526862323E-01
 9.550102997E+01 5.941232681E+00 2.526863813E-01
 9.550102997E+01 5.998024940E+00 2.526865304E-01
 9.550102997E+01 6.056121349E+00 2.526867092E-01
 9.550102997E+01 6.115552425E+00 2.526868582E-01
 9.550102997E+01 6.176349640E+00 2.526870370E-01
 9.550102997E+01 6.238544941E+00 2.526872158E-01
 9.550102997E+01 6.302172184E+00 2.526873648E-01
 9.550102997E+01 6.367264271E+00 2.526875734E-01
 9.550102997E+01 6.433856010E+00 2.526877522E-01
 9.550102997E+01 6.501983166E+00 2.526879311E-01
 9.550102997E+01 6.571682453E+00 2.526881397E-01
 9.550102997E+01 6.642989635E+00 2.526883483E-01
 9.550102997E+01 6.715944290E+00 2.526885569E-01
 9.550102997E+01 6.790584087E+00 2.526887655E-01
 9.550102997E+01 6.866949081E+00 2.526890039E-01
 9.550102997E+01 6.945081234E+00 2.526892126E-01
 9.550102997E+01 7.025020599E+00 2.526894510E-01
 9.550102997E+01 7.106811523E+00 2.526896894E-01
 9.550102997E+01 7.190496922E+00 2.526898980E-01
 9.550102997E+01 7.276121616E+00 2.526901364E-01
 9.550102997E+01 7.363732338E+00 2.526904047E-01
 9.550102997E+01 7.453374863E+00 2.526906431E-01
 9.550103760E+01 7.545098782E+00 2.526909113E-01
 9.550103760E+01 7.638952732E+00 2.526912093E-01
 9.550103760E+01 7.734986782E+00 2.526914477E-01
 9.550103760E+01 7.833253860E+00 2.526917458E-01
 9.550103760E+01 7.933805943E+00 2.526920140E-01
 9.550103760E+01 8.036698341E+00 2.526922822E-01
 9.550103760E+01 8.141985893E+00 2.526926100E-01
 9.550103760E+01 8.249726295E+00 2.526928782E-01
 9.550103760E+01 8.359977722E+00 2.526932061E-01
 9.550103760E+01 8.472799301E+00 2.526935339E-01
 9.550103760E+01 8.588253021E+00 2.526938617E-01
 9.550103760E+01 8.706402779E+00 2.526941895E-01
 9.550103760E+01 8.827310562E+00 2.526945472E-01
 9.550103760E+01 8.951045036E+00 2.526948750E-01
 9.550103760E+01 9.077672005E+00 2.526952326E-01
 9.550103760E+01 9.207262039E+00 2.526955903E-01
 9.550103760E+01 9.339884758E+00 2.526959777E-01
 9.550103760E+01 9.475614548E+00 2.526963651E-01
 9.550103760E+01 9.614524841E+00 2.526967824E-01
 9.550103760E+01 9.756692886E+00 2.526971698E-01
 9.550103760E+01 9.902196884E+00 2.526975572E-01
 9.550103760E+01 1.005111790E+01 2.526979744E-01
 9.550103760E+01 1.020353889E+01 2.526984215E-01
 9.550103760E+01 1.035954285E+01 2.526988387E-01
 9.550103760E+01 1.051921749E+01 2.526993155E-01
 9.550103760E+01 1.068265247E+01 2.526997328E-01
 9.550104523E+01 1.084993935E+01 2.527002096E-01
 9.550104523E+01 1.102116966E+01 2.527006865E-01
 9.550104523E+01 1.119644260E+01 2.527011931E-01
 9.550104523E+01 1.137585449E+01 2.527016997E-01
 9.550104523E+01 1.155950832E+01 2.527022064E-01
 9.550104523E+01 1.174750710E+01 2.527027428E-01
 9.550104523E+01 1.193995667E+01 2.527032793E-01
 9.550104523E+01 1.213696861E+01 2.527038455E-01
 9.550104523E+01 1.233865452E+01 2.527043819E-01
 9.550104523E+01 1.254512978E+01 2.527049780E-01
 9.550104523E+01 1.275651360E+01 2.527055442E-01
 9.550104523E+01 1.297292709E+01 2.527061403E-01
 9.550104523E+01 1.319449520E+01 2.527067661E-01
 9.550104523E+01 1.342134762E+01 2.527073920E-01
 9.550104523E+01 1.365361691E+01 2.527080178E-01
 9.550104523E+01 1.389143753E+01 2.527087033E-01
 9.550104523E+01 1.413494968E+01 2.527093291E-01
 9.550104523E+01 1.438429642E+01 2.527100444E-01
 9.550105286E+01 1.463962841E+01 2.527107298E-01
 9.550105286E+01 1.490109348E+01 2.527114749E-01
 9.550105286E+01 1.516885090E+01 2.527121603E-01
 9.550105286E+01 1.544306087E+01 2.527129352E-01
 9.550105286E+01 1.572388935E+01 2.527137101E-01
 9.550105286E+01 1.601150703E+01 2.527144551E-01
 9.550105286E+01 1.630608940E+01 2.527152896E-01
 9.550105286E+01 1.660781670E+01 2.527161241E-01
 9.550105286E+01 1.691687775E+01 2.527169287E-01
 9.550105286E+01 1.723346329E+01 2.527177632E-01
 9.550105286E+01 1.755777168E+01 2.527186573E-01
 9.550105286E+01 1.789000893E+01 2.527195215E-01
 9.550105286E+01 1.823038483E+01 2.527204454E-01
 9.550105286E+01 1.857911873E+01 2.527213693E-01
 9.550106049E+01 1.893643570E+01 2.527222931E-01
 9.550106049E+01 1.930257034E+01 2.527232766E-01
 9.550106049E+01 1.967775917E+01 2.527242601E-01
 9.550106049E+01 2.006225586E+01 2.527252734E-01
 9.550106049E+01 2.045631599E+01 2.527263165E-01
 9.550106049E+01 2.086020470E+01 2.527273297E-01
 9.550106049E+01 2.127420235E+01 2.527284324E-01
 9.550106049E+01 2.169859314E+01 2.527295053E-01
 9.550106049E+01 2.213367653E+01 2.527306080E-01
 9.550106049E+01 2.257975769E+01 2.527317405E-01
 9.550106049E+01 2.303715897E+01 2.527329028E-01
 9.550106049E+01 2.350621414E+01 2.527340651E-01
 9.550106049E+01 2.398727036E+01 2.527352870E-01
 9.550106812E+01 2.448068619E+01 2.527365088E-01
 9.550106812E+01 2.498683929E+01 2.527377605E-01
 9.550106812E+01 2.550612068E+01 2.527390420E-01
 9.550106812E+01 2.603894043E+01 2.527403235E-01
 9.550106812E+01 2.658572388E+01 2.527416348E-01
 9.550106812E+01 2.714692116E+01 2.527430058E-01
 9.550106812E+01 2.772299576E+01 2.527443469E-01
 9.550106812E+01 2.831444168E+01 2.527457774E-01
 9.550106812E+01 2.892177010E+01 2.527471781E-01
 9.550106812E+01 2.954552460E+01 2.527486384E-01
 9.550106812E+01 3.018626976E+01 2.527500987E-01
 9.550106812E+01 3.084460449E+01 2.527515888E-01
 9.550107574E+01 3.152115822E+01 2.527531087E-01
 9.550107574E+01 3.221659851E+01 2.527546585E-01
 9.550107574E+01 3.293162537E+01 2.527562082E-01
 9.550107574E+01 3.366698456E+01 2.527578175E-01
 9.550107574E+01 3.442346573E+01 2.527594268E-01
 9.550107574E+01 3.520190430E+01 2.527610660E-01
 9.550107574E+01 3.600319290E+01 2.527627349E-01
 9.550107574E+01 3.682828140E+01 2.527644336E-01
 9.550107574E+01 3.767818451E+01 2.527661324E-01
 9.550107574E+01 3.855398178E+01 2.527678907E-01
 9.550107574E+01 3.945683289E+01 2.527696192E-01
 9.550107574E+01 4.038798523E+01 2.527714074E-01
 9.550107574E+01 4.134877396E+01 2.527731955E-01
 9.550107574E+01 4.234063721E+01 2.527750432E-01
 9.550107574E+01 4.336513901E+01 2.527768910E-01
 9.550107574E+01 4.442395020E+01 2.527787387E-01
 9.550107574E+01 4.551890945E+01 2.527806163E-01
 9.550107574E+01 4.665198898E+01 2.527825236E-01
 9.550107574E+01 4.782535172E+01 2.527844310E-01
 9.550107574E+01 4.904135895E+01 2.527863681E-01
 9.550107574E+01 5.030258942E+01 2.527882755E-01
 9.550107574E+01 5.161187744E+01 2.527902126E-01
 9.550107574E+01 5.297234344E+01 2.527922094E-01
 9.550107574E+01 5.438742065E+01 2.527941465E-01
 9.550107574E+01 5.586091232E+01 2.527961135E-01
 9.550107574E+01 5.739704132E+01 2.527980804E-01
 9.550107574E+01 5.900048828E+01 2.528000176E-01
 9.550106812E+01 6.067647934E+01 2.528020144E-01
 9.550106812E+01 6.243082809E+01 2.528039515E-01
 9.550106812E+01 6.427005005E+01 2.528058589E-01
 9.550106049E+01 6.620140839E+01 2.528077364E-01
 9.550106049E+01 6.823300934E+01 2.528096139E-01
 9.550106049E+01 7.037388611E+01 2.528114617E-01
 9.550105286E+01 7.263403320E+01 2.528132200E-01
 9.550105286E+01 7.502436066E+01 2.528149188E-01
 9.550104523E+01 7.755661011E+01 2.528165281E-01
 9.550103760E+01 8.024299622E+01 2.528180182E-01
 9.550103760E+01 8.309553528E+01 2.528193891E-01
 9.550102997E+01 8.612479401E+01 2.528206110E-01
 9.550102234E+01 8.933766937E+01 2.528216243E-01
 9.550101471E+01 9.273377991E+01 2.528223991E-01
 9.550101471E+01 9.629962921E+01 2.528228462E-01
 9.550101471E+01 1.000000000E+02 2.528229654E-01
ZONE T="FUN3D"
 9.550101471E+01 0.000000000E+00 3.347132206E-01
 9.550101471E+01 3.408005228E-03 3.347130120E-01
 9.550101471E+01 7.532086689E-03 3.347121477E-01
 9.550101471E+01 1.229701098E-02 3.347103298E-01
 9.550101471E+01 1.762626879E-02 3.347072601E-01
 9.550101471E+01 2.345188335E-02 3.347026706E-01
 9.550101471E+01 2.971539460E-02 3.346962929E-01
 9.550101471E+01 3.636940196E-02 3.346878588E-01
 9.550101471E+01 4.337535053E-02 3.346771300E-01
 9.550101471E+01 5.070259795E-02 3.346639276E-01
 9.550101471E+01 5.832638219E-02 3.346480131E-01
 9.550101471E+01 6.622669101E-02 3.346291780E-01
 9.550101471E+01 7.438711077E-02 3.346072137E-01
 9.550101471E+01 8.279412240E-02 3.345819712E-01
 9.550101471E+01 9.143626690E-02 3.345532119E-01
 9.550101471E+01 1.003037915E-01 3.345207870E-01
 9.550101471E+01 1.093881652E-01 3.344844878E-01
 9.550101471E+01 1.186819300E-01 3.344441652E-01
 9.550101471E+01 1.281783730E-01 3.343996406E-01
 9.550101471E+01 1.378714591E-01 3.343507648E-01
 9.550101471E+01 1.477556378E-01 3.342973292E-01
 9.550101471E+01 1.578258425E-01 3.342392147E-01
 9.550101471E+01 1.680773050E-01 3.341762424E-01
 9.550101471E+01 1.785056740E-01 3.341082931E-01
 9.550101471E+01 1.891067624E-01 3.340351880E-01
 9.550101471E+01 1.998767108E-01 3.339568377E-01
 9.550101471E+01 2.108118236E-01 3.338730931E-01
 9.550101471E+01 2.219086140E-01 3.337838054E-01
 9.550101471E+01 2.331637591E-01 3.336888850E-01
 9.550101471E+01 2.445741147E-01 3.335882127E-01
 9.550101471E+01 2.561366260E-01 3.334816694E-01
 9.550101471E+01 2.678484321E-01 3.333691657E-01
 9.550101471E+01 2.797067165E-01 3.332506120E-01
 9.550101471E+01 2.917088866E-01 3.331258893E-01
 9.550101471E+01 3.038523793E-01 3.329949677E-01
 9.550101471E+01 3.161347210E-01 3.328577578E-01
 9.550101471E+01 3.285535276E-01 3.327141702E-01
 9.550101471E+01 3.411065936E-01 3.325641453E-01
 9.550101471E+01 3.537916243E-01 3.324076533E-01
 9.550101471E+01 3.666065633E-01 3.322446048E-01
 9.550101471E+01 3.795493245E-01 3.320749998E-01
 9.550101471E+01 3.926179111E-01 3.318987787E-01
 9.550101471E+01 4.058104753E-01 3.317158818E-01
 9.550101471E+01 4.191250503E-01 3.315263689E-01
 9.550101471E+01 4.325598776E-01 3.313301206E-01
 9.550101471E+01 4.461132288E-01 3.311271966E-01
 9.550101471E+01 4.597833753E-01 3.309175670E-01
 9.550101471E+01 4.735686183E-01 3.307012022E-01
 9.550101471E+01 4.874674082E-01 3.304781616E-01
 9.550101471E+01 5.014781952E-01 3.302483857E-01
 9.550101471E+01 5.155993700E-01 3.300119340E-01
 9.550101471E+01 5.298295617E-01 3.297688067E-01
 9.550101471E+01 5.441672802E-01 3.295190334E-01
 9.550101471E+01 5.586110950E-01 3.292626441E-01
 9.550101471E+01 5.731596351E-01 3.289996386E-01
 9.550101471E+01 5.878115892E-01 3.287300766E-01
 9.550101471E+01 6.025656462E-01 3.284540176E-01
 9.550101471E+01 6.174204946E-01 3.281714618E-01
 9.550101471E+01 6.323748827E-01 3.278824687E-01
 9.550101471E+01 6.474276781E-01 3.275870979E-01
 9.550101471E+01 6.625775695E-01 3.272853792E-01
 9.550101471E+01 6.778234839E-01 3.269774020E-01
 9.550101471E+01 6.931642890E-01 3.266631663E-01
 9.550101471E+01 7.085987926E-01 3.263427913E-01
 9.550101471E+01 7.241259813E-01 3.260163367E-01
 9.550101471E+01 7.397447228E-01 3.256838024E-01
 9.550101471E+01 7.554539442E-01 3.253453374E-01
 9.550101471E+01 7.712527514E-01 3.250009418E-01
 9.550101471E+01 7.871400118E-01 3.246507347E-01
 9.550101471E+01 8.031147718E-01 3.242947757E-01
 9.550101471E+01 8.191761374E-01 3.239331543E-01
 9.550101471E+01 8.353230357E-01 3.235659003E-01
 9.550101471E+01 8.515545726E-01 3.231931329E-01
 9.550101471E+01 8.678699136E-01 3.228149116E-01
 9.550101471E+01 8.842681050E-01 3.224313259E-01
 9.550101471E+01 9.007482529E-01 3.220424354E-01
 9.550101471E+01 9.173095226E-01 3.216483593E-01
 9.550101471E+01 9.339510202E-01 3.212491572E-01
 9.550101471E+01 9.506719112E-01 3.208449483E-01
 9.550101471E+01 9.674714208E-01 3.204357624E-01
 9.550101471E+01 9.843486547E-01 3.200217187E-01
 9.550101471E+01 1.001302958E+00 3.196028769E-01
 9.550101471E+01 1.018333435E+00 3.191793561E-01
 9.550101471E+01 1.035439491E+00 3.187512457E-01
 9.550101471E+01 1.052619934E+00 3.183186054E-01
 9.550101471E+01 1.069874525E+00 3.178815544E-01
 9.550101471E+01 1.087202311E+00 3.174401522E-01
 9.550101471E+01 1.104602575E+00 3.169945180E-01
 9.550101471E+01 1.122074604E+00 3.165447116E-01
 9.550101471E+01 1.139617682E+00 3.160908222E-01
 9.550101471E+01 1.157231212E+00 3.156329989E-01
 9.550101471E+01 1.174914360E+00 3.151712418E-01
 9.550101471E+01 1.192666531E+00 3.147057295E-01
 9.550101471E+01 1.210487247E+00 3.142364621E-01
 9.550101471E+01 1.228375554E+00 3.137636185E-01
 9.550101471E+01 1.246330976E+00 3.132872283E-01
 9.550101471E+01 1.264352918E+00 3.128074110E-01