#SA model results
VARIABLES = "x","cf"
ZONE T="CFL3D"
 9.997505546E-01 2.135885414E-03
 9.994956851E-01 8.270243998E-04
 9.992352128E-01 9.914202383E-04
 9.989690781E-01 1.180691994E-03
 9.986971617E-01 1.304458245E-03
 9.984192848E-01 1.397189219E-03
 9.981353879E-01 1.459555700E-03
 9.978453517E-01 1.502771047E-03
 9.975489378E-01 1.533232280E-03
 9.972460866E-01 1.556826173E-03
 9.969367385E-01 1.577097108E-03
 9.966205955E-01 1.596159302E-03
 9.962975979E-01 1.614946406E-03
 9.959676266E-01 1.633731299E-03
 9.956305623E-01 1.652448322E-03
 9.952861071E-01 1.670928556E-03
 9.949342608E-01 1.689017983E-03
 9.945747852E-01 1.706623822E-03
 9.942075610E-01 1.723716385E-03
 9.938323498E-01 1.740312087E-03
 9.934490919E-01 1.756452373E-03
 9.930576086E-01 1.772187650E-03
 9.926576614E-01 1.787566696E-03
 9.922491312E-01 1.802632003E-03
 9.918317795E-01 1.817418844E-03
 9.914054871E-01 1.831956324E-03
 9.909700155E-01 1.846269122E-03
 9.905252457E-01 1.860378776E-03
 9.900709391E-01 1.874304609E-03
 9.896069169E-01 1.888065017E-03
 9.891329408E-01 1.901676995E-03
 9.886488914E-01 1.915156958E-03
 9.881544709E-01 1.928520389E-03
 9.876495004E-01 1.941782306E-03
 9.871338010E-01 1.954956679E-03
 9.866071343E-01 1.968056895E-03
 9.860692620E-01 1.981096109E-03
 9.855199456E-01 1.994086895E-03
 9.849590063E-01 2.007041359E-03
 9.843862057E-01 2.019971609E-03
 9.838012457E-01 2.032889053E-03
 9.832039475E-01 2.045805799E-03
 9.825940728E-01 2.058733488E-03
 9.819713235E-01 2.071683994E-03
 9.813354611E-01 2.084669890E-03
 9.806861877E-01 2.097704448E-03
 9.800233245E-01 2.110801404E-03
 9.793465734E-01 2.123977290E-03
 9.786556363E-01 2.137251198E-03
 9.779502153E-01 2.150646877E-03
 9.772301316E-01 2.164194826E-03
 9.764949679E-01 2.177934861E-03
 9.757445455E-01 2.191920765E-03
 9.749785066E-01 2.206221456E-03
 9.741965532E-01 2.220929135E-03
 9.733983874E-01 2.236151602E-03
 9.725837111E-01 2.252042526E-03
 9.717522264E-01 2.268686425E-03
 9.709035754E-01 2.286459552E-03
 9.700374603E-01 2.305664122E-03
 9.691535234E-01 2.325104084E-03
 9.682514668E-01 2.343438100E-03
 9.673308730E-01 2.360684797E-03
 9.663915038E-01 2.377044410E-03
 9.654329419E-01 2.392457798E-03
 9.644548297E-01 2.406898187E-03
 9.634568691E-01 2.420325298E-03
 9.624387026E-01 2.432675334E-03
 9.613999128E-01 2.443835372E-03
 9.603402019E-01 2.453626599E-03
 9.592591524E-01 2.461783122E-03
 9.581564069E-01 2.467944752E-03
 9.570315480E-01 2.471614396E-03
 9.558842778E-01 2.472255612E-03
 9.547141790E-01 2.469053725E-03
 9.535208941E-01 2.461821306E-03
 9.523039460E-01 2.448278945E-03
 9.510630965E-01 2.434286056E-03
 9.497979283E-01 2.433995949E-03
 9.485079646E-01 2.441874007E-03
 9.471927285E-01 2.441817196E-03
 9.458519220E-01 2.433616202E-03
 9.444850683E-01 2.429598477E-03
 9.430918097E-01 2.436493291E-03
 9.416716695E-01 2.448457759E-03
 9.402241707E-01 2.459123731E-03
 9.387488365E-01 2.468256978E-03
 9.372453690E-01 2.477673348E-03
 9.357131720E-01 2.487391233E-03
 9.341518283E-01 2.496815752E-03
 9.325609803E-01 2.505982295E-03
 9.309400916E-01 2.514909720E-03
 9.292888045E-01 2.523636213E-03
 9.276065230E-01 2.532178769E-03
 9.258929491E-01 2.540537855E-03
 9.241474867E-01 2.548685065E-03
 9.223697782E-01 2.556568710E-03
 9.205593467E-01 2.564053750E-03
 9.187157154E-01 2.571607940E-03
 9.168384075E-01 2.579144202E-03
 9.149270058E-01 2.584988717E-03
 9.129810929E-01 2.589626238E-03
 9.110001326E-01 2.596000675E-03
 9.089837074E-01 2.605050104E-03
 9.069313407E-01 2.615357516E-03
 9.048426151E-01 2.625802532E-03
 9.027169943E-01 2.636086661E-03
 9.005540609E-01 2.645924687E-03
 8.983533382E-01 2.655272372E-03
 8.961144090E-01 2.664457308E-03
 8.938368559E-01 2.673574956E-03
 8.915202022E-01 2.682572929E-03
 8.891639709E-01 2.691487782E-03
 8.867678642E-01 2.700336510E-03
 8.843312860E-01 2.709128661E-03
 8.818539381E-01 2.717866795E-03
 8.793354034E-01 2.726552077E-03
 8.767752051E-01 2.735185204E-03
 8.741729856E-01 2.743767574E-03
 8.715283871E-01 2.752301050E-03
 8.688409328E-01 2.760787029E-03
 8.661103249E-01 2.769225510E-03
 8.633361459E-01 2.777617192E-03
 8.605180979E-01 2.785959281E-03
 8.576557636E-01 2.794256900E-03
 8.547489047E-01 2.802492818E-03
 8.517971039E-01 2.810790669E-03
 8.488000631E-01 2.819265472E-03
 8.457575440E-01 2.827713499E-03
 8.426691890E-01 2.836002968E-03
 8.395348191E-01 2.844179980E-03
 8.363540173E-01 2.852255711E-03
 8.331267238E-01 2.860236447E-03
 8.298526406E-01 2.868132666E-03
 8.265314698E-01 2.875955077E-03
 8.231631517E-01 2.883714158E-03
 8.197475076E-01 2.891417593E-03
 8.162842989E-01 2.899073064E-03
 8.127734661E-01 2.906684531E-03
 8.092148304E-01 2.914266894E-03
 8.056083322E-01 2.921809675E-03
 8.019539118E-01 2.929521725E-03
 7.982515097E-01 2.937587444E-03
 7.945011258E-01 2.945722779E-03
 7.907026410E-01 2.953751944E-03
 7.868561745E-01 2.961737337E-03
 7.829617262E-01 2.969684312E-03
 7.790193558E-01 2.977597062E-03
 7.750291824E-01 2.985485131E-03
 7.709913254E-01 2.993360162E-03
 7.669059038E-01 3.001231933E-03
 7.627730966E-01 3.009111853E-03
 7.585930824E-01 3.017001087E-03
 7.543661594E-01 3.024939215E-03
 7.500925064E-01 3.033040790E-03
 7.457724214E-01 3.041310003E-03
 7.414062619E-01 3.049639985E-03
 7.369942665E-01 3.058011644E-03
 7.325369120E-01 3.066445468E-03
 7.280345559E-01 3.074938664E-03
 7.234875560E-01 3.083493095E-03
 7.188965082E-01 3.092112718E-03
 7.142618299E-01 3.100802423E-03
 7.095840573E-01 3.109566867E-03
 7.048637271E-01 3.118410008E-03
 7.001014352E-01 3.127336502E-03
 6.952978373E-01 3.136350773E-03
 6.904534698E-01 3.145457478E-03
 6.855691671E-01 3.154661274E-03
 6.806454659E-01 3.163969144E-03
 6.756832600E-01 3.173387377E-03
 6.706832051E-01 3.182929242E-03
 6.656461954E-01 3.192592179E-03
 6.605730057E-01 3.202428576E-03
 6.554644704E-01 3.212284762E-03
 6.503215432E-01 3.221765393E-03
 6.451451778E-01 3.231276060E-03
 6.399362087E-01 3.241614206E-03
 6.346957088E-01 3.252794733E-03
 6.294246316E-01 3.264612285E-03
 6.241239905E-01 3.277025186E-03
 6.187948585E-01 3.289967775E-03
 6.134383082E-01 3.303339938E-03
 6.080553532E-01 3.317140276E-03
 6.026471853E-01 3.330388106E-03
 5.972149372E-01 3.342395416E-03
 5.917598009E-01 3.354576882E-03
 5.862830281E-01 3.367684083E-03
 5.807857513E-01 3.381398972E-03
 5.752692223E-01 3.395688022E-03
 5.697346330E-01 3.410534468E-03
 5.641833544E-01 3.425840754E-03
 5.586165786E-01 3.441670677E-03
 5.530356765E-01 3.456786275E-03
 5.474418402E-01 3.470409429E-03
 5.418365002E-01 3.484697081E-03
 5.362210274E-01 3.500756808E-03
 5.305966735E-01 3.518068232E-03
 5.249648690E-01 3.536506090E-03
 5.193268657E-01 3.555990756E-03
 5.136840343E-01 3.576346440E-03
 5.080377460E-01 3.597528674E-03
 5.023893118E-01 3.615549766E-03
 4.967401624E-01 3.629359649E-03
 4.910918772E-01 3.646416590E-03
 4.854457378E-01 3.669334576E-03
 4.798030555E-01 3.696088213E-03
 4.741651416E-01 3.726258175E-03
 4.685332477E-01 3.759291954E-03
 4.629087150E-01 3.794693621E-03
 4.572927952E-01 3.831225447E-03
 4.516867995E-01 3.859222168E-03
 4.460920990E-01 3.877059557E-03
 4.405103326E-01 3.899902804E-03
 4.349427223E-01 3.932186868E-03
 4.293904603E-01 3.970034420E-03
 4.238547385E-01 4.012978636E-03
 4.183367491E-01 4.060132895E-03
 4.128376245E-01 4.110429436E-03
 4.073585570E-01 4.162477329E-03
 4.019007087E-01 4.202845506E-03
 3.964653313E-01 4.226687830E-03
 3.910539150E-01 4.253447056E-03
 3.856675327E-01 4.290335346E-03
 3.803073168E-01 4.332726356E-03
 3.749742508E-01 4.380104598E-03
 3.696694374E-01 4.431774374E-03
 3.643938601E-01 4.485953134E-03
 3.591485620E-01 4.543503281E-03
 3.539345562E-01 4.593268503E-03
 3.487528563E-01 4.621538799E-03
 3.436045647E-01 4.643962719E-03
 3.384906650E-01 4.676279612E-03
 3.334120810E-01 4.716234282E-03
 3.283696175E-01 4.761552904E-03
 3.233641684E-01 4.811523482E-03
 3.183965683E-01 4.864754155E-03
 3.134675920E-01 4.920071922E-03
 3.085780740E-01 4.975450225E-03
 3.037288189E-01 5.033596419E-03
 2.989205420E-01 5.092896055E-03
 2.941540182E-01 5.137886852E-03
 2.894300222E-01 5.161558278E-03
 2.847491205E-01 5.168604199E-03
 2.801119089E-01 5.162485410E-03
 2.755188346E-01 5.145750940E-03
 2.709704041E-01 5.120969843E-03
 2.664669752E-01 5.090223160E-03
 2.620089352E-01 5.055527668E-03
 2.575966120E-01 5.017326213E-03
 2.532302439E-01 4.981900100E-03
 2.489101440E-01 4.961759783E-03
 2.446366549E-01 4.957671277E-03
 2.404101193E-01 4.962708335E-03
 2.362308204E-01 4.974542186E-03
 2.320990115E-01 4.992156290E-03
 2.280149311E-01 5.014024675E-03
 2.239787877E-01 5.039024632E-03
 2.199907601E-01 5.066358950E-03
 2.160509974E-01 5.095428787E-03
 2.121596336E-01 5.125785712E-03
 2.083167732E-01 5.156914704E-03
 2.045225054E-01 5.188726354E-03
 2.007768899E-01 5.219693296E-03
 1.970799714E-01 5.244626198E-03
 1.934316903E-01 5.260075442E-03
 1.898319870E-01 5.267351400E-03
 1.862806976E-01 5.268306471E-03
 1.827777028E-01 5.264018197E-03
 1.793228090E-01 5.255570635E-03
 1.759158373E-01 5.243892781E-03
 1.725565642E-01 5.229709670E-03
 1.692447662E-01 5.213556346E-03
 1.659801900E-01 5.195832346E-03
 1.627625823E-01 5.176810082E-03
 1.595916599E-01 5.156849977E-03
 1.564671248E-01 5.135963671E-03
 1.533886939E-01 5.115986336E-03
 1.503560394E-01 5.104355514E-03
 1.473689079E-01 5.102767609E-03
 1.444270760E-01 5.103636533E-03
 1.415302306E-01 5.104490556E-03
 1.386780590E-01 5.106414668E-03
 1.358702183E-01 5.108858924E-03
 1.331063509E-01 5.111580249E-03
 1.303861141E-01 5.114512518E-03
 1.277091354E-01 5.117664114E-03
 1.250750273E-01 5.121047609E-03
 1.224834174E-01 5.124656018E-03
 1.199338958E-01 5.128462799E-03
 1.174260676E-01 5.132434890E-03
 1.149595231E-01 5.136541557E-03
 1.125338450E-01 5.140764173E-03
 1.101486087E-01 5.145082250E-03
 1.078033820E-01 5.149479024E-03
 1.054977328E-01 5.153822247E-03
 1.032312289E-01 5.158062093E-03
 1.010034159E-01 5.159502849E-03
 9.881384671E-02 5.156107713E-03
 9.666202962E-02 5.151230842E-03
 9.454749525E-02 5.146967247E-03
 9.246978164E-02 5.142849404E-03
 9.042843431E-02 5.139030516E-03
 8.842299879E-02 5.135651212E-03
 8.645299822E-02 5.132744554E-03
 8.451798558E-02 5.130261648E-03
 8.261749148E-02 5.128146149E-03
 8.075105399E-02 5.126384087E-03
 7.891821861E-02 5.124931224E-03
 7.711853087E-02 5.123751238E-03
 7.535152137E-02 5.122846924E-03
 7.361673564E-02 5.122216884E-03
 7.191371918E-02 5.121863447E-03
 7.024202496E-02 5.121801049E-03
 6.860119104E-02 5.122054368E-03
 6.699077785E-02 5.122668110E-03
 6.541033089E-02 5.123710725E-03
 6.385941803E-02 5.125288852E-03
 6.233758852E-02 5.127562210E-03
 6.084440649E-02 5.130768288E-03
 5.937944725E-02 5.135244224E-03
 5.794227496E-02 5.141464993E-03
 5.653246865E-02 5.149983335E-03
 5.514961109E-02 5.161573179E-03
 5.379329249E-02 5.176389124E-03
 5.246310309E-02 5.196234211E-03
 5.115865543E-02 5.215015262E-03
 4.987955093E-02 5.219066050E-03
 4.862534627E-02 5.214158911E-03
 4.739559442E-02 5.214661825E-03
 4.618990794E-02 5.221287254E-03
 4.500791058E-02 5.232333206E-03
 4.384922981E-02 5.249030888E-03
 4.271349683E-02 5.272171460E-03
 4.160035402E-02 5.302290432E-03
 4.050944373E-02 5.339763593E-03
 3.944041580E-02 5.384833552E-03
 3.839294240E-02 5.437544547E-03
 3.736666963E-02 5.497618578E-03
 3.636128455E-02 5.564283114E-03
 3.537644818E-02 5.636125337E-03
 3.441184014E-02 5.710957106E-03
 3.346714005E-02 5.785753950E-03
 3.254200891E-02 5.856698379E-03
 3.163613379E-02 5.919329822E-03
 3.074916080E-02 5.968900397E-03
 2.988076396E-02 6.000824738E-03
 2.903058194E-02 6.011546124E-03
 2.819825523E-02 5.998970475E-03
 2.738342062E-02 5.965356715E-03
 2.658569999E-02 5.912268534E-03
 2.580472454E-02 5.864207633E-03
 2.504011430E-02 5.887205712E-03
 2.429169230E-02 5.982292816E-03
 2.355940640E-02 6.082808599E-03
 2.284297720E-02 6.178328302E-03
 2.214216255E-02 6.283978932E-03
 2.145670354E-02 6.397007499E-03
 2.078633569E-02 6.516132969E-03
 2.013084479E-02 6.640932523E-03
 1.948996261E-02 6.771529559E-03
 1.886346564E-02 6.908017211E-03
 1.825112849E-02 7.050212938E-03
 1.765269414E-02 7.197582163E-03
 1.706797071E-02 7.349139079E-03
 1.649670675E-02 7.503602188E-03
 1.593868062E-02 7.659346797E-03
 1.539369021E-02 7.814402692E-03
 1.486147661E-02 7.966550067E-03
 1.434185170E-02 8.113180287E-03
 1.383457612E-02 8.251375519E-03
 1.333940681E-02 8.377883583E-03
 1.285615284E-02 8.488982916E-03
 1.238454878E-02 8.580625057E-03
 1.192437578E-02 8.648148738E-03
 1.147540938E-02 8.686793968E-03
 1.103737950E-02 8.690370247E-03
 1.061007660E-02 8.656745777E-03
 1.019324362E-02 8.530785330E-03
 9.786547162E-03 8.319963701E-03
 9.389444254E-03 8.174513467E-03
 9.001806378E-03 8.147589862E-03
 8.623584174E-03 8.201616816E-03
 8.254772052E-03 8.332560770E-03
 7.895328104E-03 8.540766314E-03
 7.545236498E-03 8.825145662E-03
 7.204530761E-03 9.183452465E-03
 6.873171311E-03 9.613202885E-03
 6.551199593E-03 1.011120901E-02
 6.238665897E-03 1.067356206E-02
 5.935526919E-03 1.129568368E-02
 5.641892552E-03 1.197076403E-02
 5.357792135E-03 1.269019768E-02
 5.083175376E-03 1.344380528E-02
 4.818195011E-03 1.421866566E-02
 4.562828690E-03 1.500048302E-02
 4.316995386E-03 1.577434875E-02
 4.080845043E-03 1.652424224E-02
 3.854274284E-03 1.723397337E-02
 3.637133632E-03 1.788857393E-02
 3.429513192E-03 1.847473159E-02
 3.231222741E-03 1.897998340E-02
 3.042007098E-03 1.939516328E-02
 2.861846006E-03 1.971579716E-02
 2.690493362E-03 1.994149201E-02
 2.527598292E-03 2.007421851E-02
 2.372958232E-03 2.013662085E-02
 2.226354321E-03 2.012371644E-02
 2.087388886E-03 2.026453242E-02
 1.955782995E-03 2.075168304E-02
 1.832882059E-03 2.118135616E-02
 1.718537649E-03 2.125565894E-02
 1.612004358E-03 2.107224055E-02
 1.512641786E-03 2.071035840E-02
 1.420039567E-03 2.022320963E-02
 1.333664753E-03 1.965598390E-02
 1.253001625E-03 1.904235594E-02
 1.177590457E-03 1.840650849E-02
 1.107052551E-03 1.776557975E-02
 1.041079056E-03 1.713173650E-02
 9.793153731E-04 1.651001535E-02
 9.214414749E-04 1.590346918E-02
 8.671685355E-04 1.531425305E-02
 8.162400336E-04 1.474395674E-02
 7.684506127E-04 1.419487689E-02
 7.235798985E-04 1.366706472E-02
 6.814224180E-04 1.315981522E-02
 6.417906261E-04 1.267299615E-02
 6.045130431E-04 1.220577862E-02
 5.694334977E-04 1.175753213E-02
 5.364209646E-04 1.132824365E-02
 5.053424393E-04 1.091706101E-02
 4.760721931E-04 1.052283868E-02
 4.484944220E-04 1.014481205E-02
 4.225021112E-04 9.782223962E-03
 3.979962203E-04 9.434191510E-03
 3.748851304E-04 9.099925868E-03
 3.530888062E-04 8.779061027E-03
 3.325290454E-04 8.470940404E-03
 3.131311678E-04 8.174730465E-03
 2.948256733E-04 7.889818400E-03
 2.775479225E-04 7.615624461E-03
 2.612375538E-04 7.351601496E-03
 2.458382514E-04 7.097230293E-03
 2.312974975E-04 6.851951592E-03
 2.175667032E-04 6.615361664E-03
 2.046016161E-04 6.387182511E-03
 1.923586824E-04 6.166929845E-03
 1.807971275E-04 5.954152904E-03
 1.698786800E-04 5.748515949E-03
 1.595674548E-04 5.549670663E-03
 1.498297497E-04 5.357302725E-03
 1.406338997E-04 5.171106197E-03
 1.319501753E-04 4.990806337E-03
 1.237505348E-04 4.816098604E-03
 1.160087122E-04 4.646732938E-03
 1.087005658E-04 4.482562654E-03
 1.018026742E-04 4.323343746E-03
 9.529286035E-05 4.168823361E-03
 8.915021317E-05 4.018814303E-03
 8.335502935E-05 3.873123322E-03
 7.788869698E-05 3.731573466E-03
 7.273365190E-05 3.593997331E-03
 6.787331949E-05 3.460235195E-03
 6.329201278E-05 3.330137813E-03
 5.897494339E-05 3.203560598E-03
 5.490810508E-05 3.080372233E-03
 5.107825564E-05 2.960425336E-03
 4.747289131E-05 2.843602095E-03
 4.408036693E-05 2.729832195E-03
 4.088942660E-05 2.618991770E-03
 3.788941467E-05 2.510956721E-03
 3.507024303E-05 2.405635081E-03
 3.242235471E-05 2.302930923E-03
 2.993670751E-05 2.202755539E-03
 2.760472307E-05 2.105023246E-03
 2.541827780E-05 2.009653253E-03
 2.336967009E-05 1.916567679E-03
 2.145160215E-05 1.825692598E-03
 1.965715273E-05 1.736957231E-03
 1.797975892E-05 1.650293940E-03
 1.641319432E-05 1.565638697E-03
 1.495155902E-05 1.482927706E-03
 1.358925056E-05 1.402103924E-03
 1.232095474E-05 1.323106582E-03
 1.114163024E-05 1.245878986E-03
 1.004652768E-05 1.170385745E-03
 9.031105947E-06 1.096576685E-03
 8.091044037E-06 1.024393016E-03
 7.222245131E-06 9.537898004E-04
 6.420820682E-06 8.847228019E-04
 5.683079507E-06 8.171489462E-04
 5.005518233E-06 7.510264404E-04
 4.384811291E-06 6.863147137E-04
 3.817801371E-06 6.229741848E-04
 3.301492143E-06 5.609660293E-04
 2.833038479E-06 5.002521793E-04
 2.409740318E-06 4.407947126E-04
 2.029034022E-06 3.825558815E-04
 1.688486009E-06 3.254975018E-04
 1.385786504E-06 2.695805742E-04
 1.118742830E-06 2.147643245E-04
 8.852738347E-07 1.610064210E-04
 6.834043802E-07 1.082585295E-04
 5.112596568E-07 5.647370199E-05
 3.670607214E-07 5.580082870E-06
 2.491193243E-07 4.445741433E-05
 1.558336322E-07 9.381317068E-05
 8.568387244E-08 1.423602516E-04
 3.722830400E-08 1.907285769E-04
 9.099365705E-09 2.364312095E-04
 0.000000000E+00 2.749069245E-04
 9.136088330E-09 3.131035774E-04
 3.753262234E-08 3.583874495E-04
 8.674717833E-08 4.067035625E-04
 1.584429299E-07 4.555990745E-04
 2.543956725E-07 5.056522205E-04
 3.765014753E-07 5.567299086E-04
 5.267846177E-07 6.089992821E-04
 7.074062296E-07 6.624982343E-04
 9.206736991E-07 7.173041231E-04
 1.169050279E-06 7.734737010E-04
 1.455165943E-06 8.310675621E-04
 1.781828360E-06 8.901426336E-04
 2.152034995E-06 9.507567156E-04
 2.568986474E-06 1.012967317E-03
 3.036099770E-06 1.076833112E-03
 3.557023547E-06 1.142414054E-03
 4.135653398E-06 1.209771261E-03
 4.776150035E-06 1.278968295E-03
 5.482955657E-06 1.350069884E-03
 6.260815098E-06 1.423143898E-03
 7.114794244E-06 1.498258673E-03
 8.050305951E-06 1.575488131E-03
 9.073130968E-06 1.654905034E-03
 1.018944386E-05 1.736585400E-03
 1.140585937E-05 1.820632955E-03
 1.272939062E-05 1.907124766E-03
 1.416748910E-05 1.996113686E-03
 1.572817018E-05 2.087695757E-03
 1.742000495E-05 2.181973774E-03
 1.925214201E-05 2.279039472E-03
 2.123435843E-05 2.378992271E-03
 2.337710430E-05 2.481932286E-03
 2.569153912E-05 2.587963128E-03
 2.818959183E-05 2.697190968E-03
 3.088400626E-05 2.809724072E-03
 3.378840120E-05 2.925673965E-03
 3.691733582E-05 3.045150544E-03
 4.028635522E-05 3.168273019E-03
 4.391208131E-05 3.295140341E-03
 4.781228199E-05 3.425920615E-03
 5.200590749E-05 3.560761688E-03
 5.651255560E-05 3.699664492E-03
 6.135369767E-05 3.842740087E-03
 6.655229663E-05 3.990146797E-03
 7.213283970E-05 4.141979385E-03
 7.812149124E-05 4.298344254E-03
 8.454616182E-05 4.459333140E-03
 9.143664647E-05 4.625030328E-03
 9.882472659E-05 4.795518704E-03
 1.067443154E-04 4.970835987E-03
 1.152315599E-04 5.151138641E-03
 1.243247098E-04 5.336503964E-03
 1.340622839E-04 5.526706111E-03
 1.444871887E-04 5.721718073E-03
 1.556452189E-04 5.921588745E-03
 1.675850508E-04 6.126218475E-03
 1.803584455E-04 6.335500628E-03
 1.940203510E-04 6.549261976E-03
 2.086290624E-04 6.767332554E-03
 2.242464543E-04 6.989673711E-03
 2.409349836E-04 7.215878461E-03
 2.587575873E-04 7.445223629E-03
 2.777856134E-04 7.677366026E-03
 2.980943536E-04 7.911927067E-03
 3.197632032E-04 8.148308843E-03
 3.428756027E-04 8.385859430E-03
 3.675194166E-04 8.624170907E-03
 3.937832080E-04 8.862493560E-03
 4.217478563E-04 9.099354036E-03
 4.515093169E-04 9.333836846E-03
 4.831687256E-04 9.565226734E-03
 5.168315256E-04 9.792346507E-03
 5.526072346E-04 1.001443993E-02
 5.906074657E-04 1.023063157E-02
 6.309231394E-04 1.043905877E-02
 6.736622890E-04 1.063838974E-02
 7.189432508E-04 1.082782913E-02
 7.668873877E-04 1.100626774E-02
 8.176192059E-04 1.117307320E-02
 8.712525596E-04 1.132722944E-02
 9.278748767E-04 1.146706287E-02
 9.876071708E-04 1.159191970E-02
 1.050574356E-03 1.170135289E-02
 1.116902800E-03 1.179500390E-02
 1.186710899E-03 1.187247597E-02
 1.260070479E-03 1.193246339E-02
 1.337093418E-03 1.197432447E-02
 1.417899854E-03 1.199760661E-02
 1.502609928E-03 1.200178824E-02
 1.591327600E-03 1.198646054E-02
 1.684108633E-03 1.195128541E-02
 1.781058498E-03 1.189755276E-02
 1.882287790E-03 1.181368064E-02
 1.987906406E-03 1.170382649E-02
 2.097738907E-03 1.164886728E-02
 2.211534185E-03 1.169332489E-02
 2.329434268E-03 1.177415811E-02
 2.451587468E-03 1.185419783E-02
 2.578142099E-03 1.193488948E-02
 2.709213877E-03 1.201036852E-02
 2.844951116E-03 1.207876857E-02
 2.985515632E-03 1.213868801E-02
 3.131073900E-03 1.218949351E-02
 3.281754674E-03 1.223058626E-02
 3.437707433E-03 1.226161048E-02
 3.599108662E-03 1.228257734E-02
 3.766138339E-03 1.229353994E-02
 3.938932437E-03 1.229433902E-02
 4.117649049E-03 1.228485070E-02
 4.302477930E-03 1.226522494E-02
 4.493609536E-03 1.223558746E-02
 4.691177048E-03 1.219583396E-02
 4.895357881E-03 1.214597095E-02
 5.106354132E-03 1.208622940E-02
 5.324353930E-03 1.201676857E-02
 5.549492314E-03 1.193758473E-02
 5.781971384E-03 1.184885856E-02
 6.022005808E-03 1.175089739E-02
 6.269752979E-03 1.164379995E-02
 6.525381934E-03 1.152759325E-02
 6.789113861E-03 1.140231080E-02
 7.061153185E-03 1.126774680E-02
 7.341639139E-03 1.112318132E-02
 7.630790118E-03 1.096750610E-02
 7.928836159E-03 1.079920493E-02
 8.235924877E-03 1.061635558E-02
 8.552256972E-03 1.041724440E-02
 8.878069930E-03 1.020114683E-02
 9.213547222E-03 9.969083592E-03
 9.558859281E-03 9.708966129E-03
 9.914254770E-03 9.412459098E-03
 1.027964428E-02 9.179783054E-03
 1.065458171E-02 9.096652269E-03
 1.103932597E-02 9.076886810E-03
 1.143415272E-02 9.054028429E-03
 1.183930133E-02 9.029991925E-03
 1.225505583E-02 8.996185847E-03
 1.268169191E-02 8.950821124E-03
 1.311944425E-02 8.892732672E-03
 1.356859971E-02 8.822234347E-03
 1.402942371E-02 8.740183897E-03
 1.450214814E-02 8.647805080E-03
 1.498705801E-02 8.546475321E-03
 1.548440382E-02 8.437641896E-03
 1.599442028E-02 8.322713897E-03
 1.651739143E-02 8.203043602E-03
 1.705354452E-02 8.079906926E-03
 1.760313101E-02 7.954433560E-03
 1.816642471E-02 7.827593014E-03
 1.874364167E-02 7.700100541E-03
 1.933504827E-02 7.572242524E-03
 1.994090714E-02 7.443752140E-03
 2.056143992E-02 7.313739508E-03
 2.119692415E-02 7.180853281E-03
 2.184761129E-02 7.043982856E-03
 2.251373976E-02 6.903362460E-03
 2.319559827E-02 6.761724595E-03
 2.389342897E-02 6.618180312E-03
 2.460749634E-02 6.442550104E-03
 2.533790283E-02 6.326362025E-03
 2.608367801E-02 6.418817677E-03
 2.684505098E-02 6.630043965E-03
 2.762253582E-02 6.837430410E-03
 2.841666900E-02 7.027294021E-03
 2.922801860E-02 7.184897084E-03
 3.005714715E-02 7.303985767E-03
 3.090462647E-02 7.382093463E-03
 3.177102283E-02 7.420263253E-03
 3.265686706E-02 7.421717048E-03
 3.356269374E-02 7.391186897E-03
 3.448896855E-02 7.334231399E-03
 3.543617576E-02 7.256721146E-03
 3.640473634E-02 7.164404262E-03
 3.739504889E-02 7.062559947E-03
 3.840752691E-02 6.955771707E-03
 3.944249451E-02 6.847764365E-03
 4.050034285E-02 6.741309538E-03
 4.158139601E-02 6.638215855E-03
 4.268599302E-02 6.539353635E-03
 4.381449521E-02 6.444817409E-03
 4.496720061E-02 6.354289595E-03
 4.614447430E-02 6.267546210E-03
 4.734666646E-02 6.185139064E-03
 4.857409373E-02 6.103319582E-03
 4.982713982E-02 6.022135727E-03
 5.110596120E-02 5.970293190E-03
 5.241059884E-02 5.965418648E-03
 5.374143273E-02 5.981571507E-03
 5.509884655E-02 6.001636386E-03
 5.648323894E-02 6.025399081E-03
 5.789502338E-02 6.050290074E-03
 5.933462828E-02 6.075714715E-03
 6.080247462E-02 6.101293024E-03
 6.229900941E-02 6.126975175E-03
 6.382468343E-02 6.152779795E-03
 6.537993252E-02 6.178766489E-03
 6.696522981E-02 6.204992533E-03
 6.858104467E-02 6.231511012E-03
 7.022784650E-02 6.258365698E-03
 7.190610468E-02 6.285583135E-03
 7.361631095E-02 6.313182879E-03
 7.535895705E-02 6.341181230E-03
 7.713454217E-02 6.369553972E-03
 7.894356549E-02 6.398245227E-03
 8.078654110E-02 6.427182350E-03
 8.266399056E-02 6.456218660E-03
 8.457645029E-02 6.485066842E-03
 8.652444184E-02 6.513191387E-03
 8.850853145E-02 6.539636292E-03
 9.052927792E-02 6.562844384E-03
 9.258724749E-02 6.580567453E-03
 9.468306601E-02 6.590004545E-03
 9.681734443E-02 6.587696727E-03
 9.899071604E-02 6.566546392E-03
 1.012038812E-01 6.526159123E-03
 1.034572199E-01 6.479903590E-03
 1.057511643E-01 6.435110234E-03
 1.080861017E-01 6.390528753E-03
 1.104624495E-01 6.346227136E-03
 1.128805801E-01 6.302273367E-03
 1.153408885E-01 6.258800626E-03
 1.178437248E-01 6.216039881E-03
 1.203894615E-01 6.174315233E-03
 1.229784340E-01 6.134038325E-03
 1.256109774E-01 6.095737219E-03
 1.282874197E-01 6.060134619E-03
 1.310080588E-01 6.028276868E-03
 1.337732077E-01 6.001659669E-03
 1.365831196E-01 5.982232746E-03
 1.394380629E-01 5.972097162E-03
 1.423382759E-01 5.972813349E-03
 1.452840120E-01 5.985745229E-03
 1.482754499E-01 6.019405555E-03
 1.513128877E-01 6.055863574E-03
 1.543972790E-01 6.056243554E-03
 1.575290263E-01 6.031748839E-03
 1.607083827E-01 6.006637122E-03
 1.639355719E-01 5.981291644E-03
 1.672107875E-01 5.956374109E-03
 1.705342084E-01 5.932019558E-03
 1.739060134E-01 5.908512510E-03
 1.773263365E-01 5.886305589E-03
 1.807952970E-01 5.866125226E-03
 1.843129992E-01 5.848906934E-03
 1.878795326E-01 5.835591350E-03
 1.914949417E-01 5.826698150E-03
 1.951592714E-01 5.823722109E-03
 1.988725364E-01 5.828752648E-03
 2.026348412E-01 5.828579888E-03
 2.064464837E-01 5.808500107E-03
 2.103074640E-01 5.779766012E-03
 2.142176777E-01 5.752402823E-03
 2.181770205E-01 5.725261290E-03
 2.221853733E-01 5.699291360E-03
 2.262425721E-01 5.674938671E-03
 2.303484231E-01 5.653015338E-03
 2.345027179E-01 5.634412169E-03
 2.387052178E-01 5.619936623E-03
 2.429556400E-01 5.610204767E-03
 2.472537011E-01 5.608376116E-03
 2.515990734E-01 5.609390792E-03
 2.559916377E-01 5.599947646E-03
 2.604311109E-01 5.582412705E-03
 2.649170458E-01 5.564860534E-03
 2.694490254E-01 5.547753070E-03
 2.740266323E-01 5.531354807E-03
 2.786493599E-01 5.515992641E-03
 2.833167017E-01 5.502081942E-03
 2.880280614E-01 5.490115378E-03
 2.927829027E-01 5.480617750E-03
 2.975806296E-01 5.474471953E-03
 3.024205267E-01 5.471912678E-03
 3.073019981E-01 5.471108947E-03
 3.122243881E-01 5.470161326E-03
 3.171869516E-01 5.468533840E-03
 3.221889734E-01 5.465904251E-03
 3.272297084E-01 5.461794324E-03
 3.323082924E-01 5.455724895E-03
 3.374239206E-01 5.447337870E-03
 3.425757289E-01 5.436157342E-03
 3.477627635E-01 5.420927424E-03
 3.529841304E-01 5.405972246E-03
 3.582387567E-01 5.397732835E-03
 3.635256588E-01 5.392370280E-03
 3.688438237E-01 5.385347642E-03
 3.741921782E-01 5.376732908E-03
 3.795696199E-01 5.365861114E-03
 3.849750459E-01 5.352197681E-03
 3.904072940E-01 5.335162394E-03
 3.958651721E-01 5.313730799E-03
 4.013474882E-01 5.287639331E-03
 4.068529904E-01 5.259175785E-03
 4.123803973E-01 5.230365787E-03
 4.179284573E-01 5.201367196E-03
 4.234958887E-01 5.172362085E-03
 4.290813506E-01 5.143773276E-03
 4.346835315E-01 5.115852226E-03
 4.403010905E-01 5.088635255E-03
 4.459326863E-01 5.063557066E-03
 4.515769482E-01 5.037855357E-03
 4.572324455E-01 5.004500505E-03
 4.628977478E-01 4.965722561E-03
 4.685714841E-01 4.927287344E-03
 4.742522538E-01 4.890191834E-03
 4.799386859E-01 4.855050240E-03
 4.856293797E-01 4.822500516E-03
 4.913229942E-01 4.793113098E-03
 4.970181286E-01 4.768634681E-03
 5.027133822E-01 4.746251274E-03
 5.084072948E-01 4.719269928E-03
 5.140982866E-01 4.689068533E-03
 5.197851062E-01 4.659215920E-03
 5.254663229E-01 4.629640374E-03
 5.311404467E-01 4.600563552E-03
 5.368062258E-01 4.572079517E-03
 5.424621701E-01 4.544388503E-03
 5.481070280E-01 4.517856054E-03
 5.537393093E-01 4.491234664E-03
 5.593577027E-01 4.462746903E-03
 5.649608374E-01 4.433325492E-03
 5.705474019E-01 4.404010251E-03
 5.761160851E-01 4.374704324E-03
 5.816655755E-01 4.345520400E-03
 5.871946812E-01 4.316454288E-03
 5.927020907E-01 4.287600983E-03
 5.981865525E-01 4.259169567E-03
 6.036469936E-01 4.229821730E-03
 6.090819836E-01 4.198137205E-03
 6.144904494E-01 4.165549297E-03
 6.198713183E-01 4.133274313E-03
 6.252234578E-01 4.101281520E-03
 6.305457950E-01 4.069781397E-03
 6.358372569E-01 4.038868938E-03
 6.410969496E-01 4.008547869E-03
 6.463238001E-01 3.979518078E-03
 6.515168548E-01 3.950707614E-03
 6.566750407E-01 3.919005394E-03
 6.617975235E-01 3.885169048E-03
 6.668834090E-01 3.851483576E-03
 6.719318032E-01 3.818235593E-03
 6.769419909E-01 3.785572248E-03
 6.819131970E-01 3.753663506E-03
 6.868446469E-01 3.722631373E-03
 6.917357445E-01 3.692465834E-03
 6.965857744E-01 3.663968761E-03
 7.013940811E-01 3.636029549E-03
 7.061598897E-01 3.605173202E-03
 7.108826041E-01 3.572062356E-03
 7.155616879E-01 3.539108904E-03
 7.201966643E-01 3.506589215E-03
 7.247869968E-01 3.474615281E-03
 7.293322682E-01 3.443344263E-03
 7.338320613E-01 3.412896767E-03
 7.382860184E-01 3.383324947E-03
 7.426938415E-01 3.354470944E-03
 7.470550537E-01 3.327564569E-03
 7.513694763E-01 3.300460521E-03
 7.556365132E-01 3.267566673E-03
 7.598559260E-01 3.230927978E-03
 7.640274763E-01 3.194904653E-03
 7.681511045E-01 3.159853630E-03
 7.722266912E-01 3.125967691E-03
 7.762541771E-01 3.093455452E-03
 7.802335024E-01 3.062546486E-03
 7.841645479E-01 3.033471527E-03
 7.880474329E-01 3.006424289E-03
 7.918820977E-01 2.981374040E-03
 7.956685424E-01 2.958979923E-03
 7.994068861E-01 2.939726692E-03
 8.030970097E-01 2.918442246E-03
 8.067386746E-01 2.891045529E-03
 8.103320599E-01 2.862009220E-03
 8.138772249E-01 2.834143816E-03
 8.173744082E-01 2.806925680E-03
 8.208237290E-01 2.780622104E-03
 8.242253661E-01 2.755221678E-03
 8.275795579E-01 2.730805427E-03
 8.308865428E-01 2.707448555E-03
 8.341464400E-01 2.685254905E-03
 8.373596072E-01 2.664322499E-03
 8.405262828E-01 2.644735156E-03
 8.436467648E-01 2.626457950E-03
 8.467212915E-01 2.609905554E-03
 8.497501612E-01 2.595195547E-03
 8.527336121E-01 2.579671331E-03
 8.556718826E-01 2.561623929E-03
 8.585653305E-01 2.543069655E-03
 8.614141345E-01 2.525047399E-03
 8.642188311E-01 2.507267287E-03
 8.669796586E-01 2.489782171E-03
 8.696969748E-01 2.472527325E-03
 8.723712564E-01 2.455477370E-03
 8.750028014E-01 2.438603435E-03
 8.775919676E-01 2.421889454E-03
 8.801392317E-01 2.405324252E-03