#SA model results
VARIABLES = "x","cp"
ZONE T="CFL3D"
 1.000000000E+00 1.651024967E-01
 9.997505546E-01 1.751700044E-01
 9.994956851E-01 1.830208302E-01
 9.992352128E-01 1.812505424E-01
 9.989690781E-01 1.809734553E-01
 9.986971617E-01 1.799728721E-01
 9.984192848E-01 1.792031825E-01
 9.981353879E-01 1.782949418E-01
 9.978453517E-01 1.773713231E-01
 9.975489378E-01 1.763861179E-01
 9.972460866E-01 1.753547341E-01
 9.969367385E-01 1.743233502E-01
 9.966205955E-01 1.732765734E-01
 9.962975979E-01 1.722451895E-01
 9.959676266E-01 1.712138206E-01
 9.956305623E-01 1.701978296E-01
 9.952861071E-01 1.691818386E-01
 9.949342608E-01 1.681812406E-01
 9.945747852E-01 1.671806425E-01
 9.942075610E-01 1.661800593E-01
 9.938323498E-01 1.651794612E-01
 9.934490919E-01 1.641942561E-01
 9.930576086E-01 1.631936580E-01
 9.926576614E-01 1.621930748E-01
 9.922491312E-01 1.611924767E-01
 9.918317795E-01 1.601764858E-01
 9.914054871E-01 1.591758877E-01
 9.909700155E-01 1.581599116E-01
 9.905252457E-01 1.571593136E-01
 9.900709391E-01 1.561279297E-01
 9.896069169E-01 1.551119387E-01
 9.891329408E-01 1.540805548E-01
 9.886488914E-01 1.530491710E-01
 9.881544709E-01 1.520177871E-01
 9.876495004E-01 1.509710252E-01
 9.871338010E-01 1.499242485E-01
 9.866071343E-01 1.488774717E-01
 9.860692620E-01 1.478153020E-01
 9.855199456E-01 1.467531323E-01
 9.849590063E-01 1.456755698E-01
 9.843862057E-01 1.445980072E-01
 9.838012457E-01 1.435050368E-01
 9.832039475E-01 1.424120814E-01
 9.825940728E-01 1.413191259E-01
 9.819713235E-01 1.402107775E-01
 9.813354611E-01 1.390870363E-01
 9.806861877E-01 1.379632950E-01
 9.800233245E-01 1.368395388E-01
 9.793465734E-01 1.357004046E-01
 9.786556363E-01 1.345612705E-01
 9.779502153E-01 1.334067434E-01
 9.772301316E-01 1.322522014E-01
 9.764949679E-01 1.310976744E-01
 9.757445455E-01 1.299431473E-01
 9.749785066E-01 1.287732124E-01
 9.741965532E-01 1.276186854E-01
 9.733983874E-01 1.264641434E-01
 9.725837111E-01 1.253096163E-01
 9.717522264E-01 1.241704822E-01
 9.709035754E-01 1.230467334E-01
 9.700374603E-01 1.219537780E-01
 9.691535234E-01 1.209685802E-01
 9.682514668E-01 1.200295538E-01
 9.673308730E-01 1.191367209E-01
 9.663915038E-01 1.183054596E-01
 9.654329419E-01 1.175203770E-01
 9.644548297E-01 1.168122590E-01
 9.634568691E-01 1.161503270E-01
 9.624387026E-01 1.155653670E-01
 9.613999128E-01 1.150419787E-01
 9.603402019E-01 1.145801693E-01
 9.592591524E-01 1.141799316E-01
 9.581564069E-01 1.138412654E-01
 9.570315480E-01 1.135487854E-01
 9.558842778E-01 1.132870913E-01
 9.547141790E-01 1.130715758E-01
 9.535208941E-01 1.128098816E-01
 9.523039460E-01 1.126097664E-01
 9.510630965E-01 1.118246838E-01
 9.497979283E-01 1.106393635E-01
 9.485079646E-01 1.100082174E-01
 9.471927285E-01 1.096541584E-01
 9.458519220E-01 1.089306548E-01
 9.444850683E-01 1.076375768E-01
 9.430918097E-01 1.062983200E-01
 9.416716695E-01 1.052207574E-01
 9.402241707E-01 1.042201668E-01
 9.387488365E-01 1.031579971E-01
 9.372453690E-01 1.020188555E-01
 9.357131720E-01 1.009259000E-01
 9.341518283E-01 9.983294457E-02
 9.325609803E-01 9.873998165E-02
 9.309400916E-01 9.764702618E-02
 9.292888045E-01 9.656946361E-02
 9.276065230E-01 9.549190104E-02
 9.258929491E-01 9.441433847E-02
 9.241474867E-01 9.333677590E-02
 9.223697782E-01 9.225921333E-02
 9.205593467E-01 9.118165076E-02
 9.187157154E-01 9.005790204E-02
 9.168384075E-01 8.898033947E-02
 9.149270058E-01 8.794895560E-02
 9.129810929E-01 8.677903563E-02
 9.110001326E-01 8.545517176E-02
 9.089837074E-01 8.414670080E-02
 9.069313407E-01 8.288440853E-02
 9.048426151E-01 8.163751662E-02
 9.027169943E-01 8.039062470E-02
 9.005540609E-01 7.917451113E-02
 8.983533382E-01 7.792761922E-02
 8.961144090E-01 7.669612020E-02
 8.938368559E-01 7.546461374E-02
 8.915202022E-01 7.423311472E-02
 8.891639709E-01 7.300161570E-02
 8.867678642E-01 7.177011669E-02
 8.843312860E-01 7.052321732E-02
 8.818539381E-01 6.929171830E-02
 8.793354034E-01 6.806021929E-02
 8.767752051E-01 6.682872027E-02
 8.741729856E-01 6.559721380E-02
 8.715283871E-01 6.436571479E-02
 8.688409328E-01 6.311882287E-02
 8.661103249E-01 6.188732013E-02
 8.633361459E-01 6.064042449E-02
 8.605180979E-01 5.939352885E-02
 8.576557636E-01 5.814663693E-02
 8.547489047E-01 5.689974129E-02
 8.517971039E-01 5.563745275E-02
 8.488000631E-01 5.437516421E-02
 8.457575440E-01 5.311287567E-02
 8.426691890E-01 5.186598003E-02
 8.395348191E-01 5.061908439E-02
 8.363540173E-01 4.937219247E-02
 8.331267238E-01 4.810990393E-02
 8.298526406E-01 4.686300829E-02
 8.265314698E-01 4.560071975E-02
 8.231631517E-01 4.433843121E-02
 8.197475076E-01 4.306074977E-02
 8.162842989E-01 4.178306833E-02
 8.127734661E-01 4.050538316E-02
 8.092148304E-01 3.921230882E-02
 8.056083322E-01 3.790383786E-02
 8.019539118E-01 3.656458110E-02
 7.982515097E-01 3.520993143E-02
 7.945011258E-01 3.387067467E-02
 7.907026410E-01 3.253141791E-02
 7.868561745E-01 3.117676452E-02
 7.829617262E-01 2.980672009E-02
 7.790193558E-01 2.843667567E-02
 7.750291824E-01 2.705123648E-02
 7.709913254E-01 2.566579916E-02
 7.669059038E-01 2.426496707E-02
 7.627730966E-01 2.283334732E-02
 7.585930824E-01 2.140172757E-02
 7.543661594E-01 1.993932016E-02
 7.500925064E-01 1.846151799E-02
 7.457724214E-01 1.696832292E-02
 7.414062619E-01 1.545973495E-02
 7.369942665E-01 1.393575221E-02
 7.325369120E-01 1.239637658E-02
 7.280345559E-01 1.084160618E-02
 7.234875560E-01 9.256049059E-03
 7.188965082E-01 7.655097637E-03
 7.142618299E-01 6.038752850E-03
 7.095840573E-01 4.391620401E-03
 7.048637271E-01 2.744487720E-03
 7.001014352E-01 1.051174011E-03
 6.952978373E-01 -6.575335283E-04
 6.904534698E-01 -2.381634898E-03
 6.855691671E-01 -4.136523698E-03
 6.806454659E-01 -5.922200158E-03
 6.756832600E-01 -7.738663815E-03
 6.706832051E-01 -9.585915133E-03
 6.656461954E-01 -1.144856028E-02
 6.605730057E-01 -1.335738692E-02
 6.554644704E-01 -1.528160740E-02
 6.503215432E-01 -1.722122170E-02
 6.451451778E-01 -1.926859096E-02
 6.399362087E-01 -2.142371796E-02
 6.346957088E-01 -2.360963263E-02
 6.294246316E-01 -2.585712075E-02
 6.241239905E-01 -2.815079130E-02
 6.187948585E-01 -3.047524951E-02
 6.134383082E-01 -3.284588829E-02
 6.080553532E-01 -3.521652892E-02
 6.026471853E-01 -3.749480471E-02
 5.972149372E-01 -3.983465582E-02
 5.917598009E-01 -4.234384000E-02
 5.862830281E-01 -4.488380998E-02
 5.807857513E-01 -4.748535529E-02
 5.752692223E-01 -5.013308302E-02
 5.697346330E-01 -5.282699317E-02
 5.641833544E-01 -5.556708202E-02
 5.586165786E-01 -5.835335329E-02
 5.530356765E-01 -6.101647392E-02
 5.474418402E-01 -6.378734857E-02
 5.418365002E-01 -6.683531404E-02
 5.362210274E-01 -6.996025145E-02
 5.305966735E-01 -7.316215336E-02
 5.249648690E-01 -7.644101977E-02
 5.193268657E-01 -7.979685813E-02
 5.136840343E-01 -8.319888264E-02
 5.080377460E-01 -8.660090715E-02
 5.023893118E-01 -8.960268646E-02
 4.967401624E-01 -9.302010387E-02
 4.910918772E-01 -9.720720351E-02
 4.854457378E-01 -1.014866754E-01
 4.798030555E-01 -1.059200764E-01
 4.741651416E-01 -1.104920208E-01
 4.685332477E-01 -1.151255444E-01
 4.629087150E-01 -1.197436750E-01
 4.572927952E-01 -1.240693182E-01
 4.516867995E-01 -1.273327917E-01
 4.460920990E-01 -1.312889904E-01
 4.405103326E-01 -1.365536600E-01
 4.349427223E-01 -1.417567581E-01
 4.293904603E-01 -1.471137851E-01
 4.238547385E-01 -1.525785625E-01
 4.183367491E-01 -1.580433547E-01
 4.128376245E-01 -1.633388102E-01
 4.073585570E-01 -1.681570560E-01
 4.019007087E-01 -1.712819934E-01
 3.964653313E-01 -1.748379469E-01
 3.910539150E-01 -1.799948514E-01
 3.856675327E-01 -1.849208623E-01
 3.803073168E-01 -1.899238378E-01
 3.749742508E-01 -1.949421912E-01
 3.696694374E-01 -1.998835951E-01
 3.643938601E-01 -2.045171112E-01
 3.591485620E-01 -2.089043409E-01
 3.539345562E-01 -2.113981247E-01
 3.487528563E-01 -2.131838053E-01
 3.436045647E-01 -2.166781873E-01
 3.384906650E-01 -2.204496562E-01
 3.334120810E-01 -2.240671962E-01
 3.283696175E-01 -2.276693285E-01
 3.233641684E-01 -2.311637253E-01
 3.183965683E-01 -2.343810201E-01
 3.134675920E-01 -2.371980697E-01
 3.085780740E-01 -2.393839806E-01
 3.037288189E-01 -2.412466258E-01
 2.989205420E-01 -2.415699065E-01
 2.941540182E-01 -2.395687103E-01
 2.894300222E-01 -2.365515381E-01
 2.847491205E-01 -2.327954620E-01
 2.801119089E-01 -2.284236252E-01
 2.755188346E-01 -2.236823440E-01
 2.709704041E-01 -2.188640982E-01
 2.664669752E-01 -2.141536176E-01
 2.620089352E-01 -2.098279595E-01
 2.575966120E-01 -2.059949189E-01
 2.532302439E-01 -2.036242783E-01
 2.489101440E-01 -2.027468383E-01
 2.446366549E-01 -2.022080570E-01
 2.404101193E-01 -2.019925416E-01
 2.362308204E-01 -2.021926641E-01
 2.320990115E-01 -2.026082873E-01
 2.280149311E-01 -2.031316757E-01
 2.239787877E-01 -2.036704570E-01
 2.199907601E-01 -2.041014880E-01
 2.160509974E-01 -2.043939680E-01
 2.121596336E-01 -2.044401467E-01
 2.083167732E-01 -2.041784525E-01
 2.045225054E-01 -2.035165280E-01
 2.007768899E-01 -2.022080570E-01
 1.970799714E-01 -2.000221461E-01
 1.934316903E-01 -1.972358674E-01
 1.898319870E-01 -1.941263229E-01
 1.862806976E-01 -1.907243133E-01
 1.827777028E-01 -1.870913804E-01
 1.793228090E-01 -1.833353043E-01
 1.759158373E-01 -1.795330495E-01
 1.725565642E-01 -1.757461727E-01
 1.692447662E-01 -1.720516682E-01
 1.659801900E-01 -1.684957147E-01
 1.627625823E-01 -1.651244760E-01
 1.595916599E-01 -1.620149463E-01
 1.564671248E-01 -1.591978818E-01
 1.533886939E-01 -1.569196135E-01
 1.503560394E-01 -1.554725915E-01
 1.473689079E-01 -1.540717632E-01
 1.444270760E-01 -1.524708122E-01
 1.415302306E-01 -1.511161625E-01
 1.386780590E-01 -1.498538703E-01
 1.358702183E-01 -1.486377567E-01
 1.331063509E-01 -1.474986225E-01
 1.303861141E-01 -1.463902742E-01
 1.277091354E-01 -1.453434974E-01
 1.250750273E-01 -1.443275064E-01
 1.224834174E-01 -1.433577091E-01
 1.199338958E-01 -1.424186826E-01
 1.174260676E-01 -1.415104568E-01
 1.149595231E-01 -1.406330019E-01
 1.125338450E-01 -1.397863477E-01
 1.101486087E-01 -1.389396936E-01
 1.078033820E-01 -1.381238252E-01
 1.054977328E-01 -1.372925639E-01
 1.032312289E-01 -1.364613026E-01
 1.010034159E-01 -1.354453117E-01
 9.881384671E-02 -1.344908923E-01
 9.666202962E-02 -1.338289678E-01
 9.454749525E-02 -1.332440078E-01
 9.246978164E-02 -1.327975839E-01
 9.042843431E-02 -1.324897110E-01
 8.842299879E-02 -1.323203743E-01
 8.645299822E-02 -1.323049814E-01
 8.451798558E-02 -1.324435323E-01
 8.261749148E-02 -1.327360123E-01
 8.075105399E-02 -1.331670284E-01
 7.891821861E-02 -1.337673962E-01
 7.711853087E-02 -1.345216781E-01
 7.535152137E-02 -1.354299188E-01
 7.361673564E-02 -1.365074813E-01
 7.191371918E-02 -1.377543807E-01
 7.024202496E-02 -1.391706020E-01
 6.860119104E-02 -1.407561600E-01
 6.699077785E-02 -1.425418407E-01
 6.541033089E-02 -1.444968432E-01
 6.385941803E-02 -1.466673613E-01
 6.233758852E-02 -1.490226090E-01
 6.084440649E-02 -1.515779793E-01
 5.937944725E-02 -1.543334574E-01
 5.794227496E-02 -1.573044509E-01
 5.653246865E-02 -1.604601741E-01
 5.514961109E-02 -1.638160050E-01
 5.379329249E-02 -1.672950089E-01
 5.246310309E-02 -1.709587127E-01
 5.115865543E-02 -1.742991656E-01
 4.987955093E-02 -1.774394959E-01
 4.862534627E-02 -1.813187152E-01
 4.739559442E-02 -1.856751591E-01
 4.618990794E-02 -1.901701391E-01
 4.500791058E-02 -1.949114054E-01
 4.384922981E-02 -1.998989880E-01
 4.271349683E-02 -2.051020861E-01
 4.160035402E-02 -2.104591131E-01
 4.050944373E-02 -2.159084976E-01
 3.944041580E-02 -2.213886827E-01
 3.839294240E-02 -2.268380672E-01
 3.736666963E-02 -2.321950942E-01
 3.636128455E-02 -2.373520136E-01
 3.537644818E-02 -2.422626168E-01
 3.441184014E-02 -2.468191683E-01
 3.346714005E-02 -2.509908974E-01
 3.254200891E-02 -2.547315657E-01
 3.163613379E-02 -2.580412328E-01
 3.074916080E-02 -2.609506547E-01
 2.988076396E-02 -2.635675967E-01
 2.903058194E-02 -2.660305798E-01
 2.819825523E-02 -2.684935927E-01
 2.738342062E-02 -2.712644637E-01
 2.658569999E-02 -2.744047940E-01
 2.580472454E-02 -2.791460752E-01
 2.504011430E-02 -2.859655023E-01
 2.429169230E-02 -2.915842235E-01
 2.355940640E-02 -2.958790958E-01
 2.284297720E-02 -3.006203771E-01
 2.214216255E-02 -3.051769137E-01
 2.145670354E-02 -3.094410002E-01
 2.078633569E-02 -3.133510053E-01
 2.013084479E-02 -3.168915808E-01
 1.948996261E-02 -3.200472891E-01
 1.886346564E-02 -3.227565885E-01
 1.825112849E-02 -3.250194788E-01
 1.765269414E-02 -3.267897666E-01
 1.706797071E-02 -3.280366659E-01
 1.649670675E-02 -3.287447691E-01
 1.593868062E-02 -3.288833201E-01
 1.539369021E-02 -3.284369111E-01
 1.486147661E-02 -3.273901343E-01
 1.434185170E-02 -3.257737756E-01
 1.383457612E-02 -3.235570788E-01
 1.333940681E-02 -3.208015859E-01
 1.285615284E-02 -3.175381124E-01
 1.238454878E-02 -3.138282299E-01
 1.192437578E-02 -3.097488582E-01
 1.147540938E-02 -3.054386079E-01
 1.103737950E-02 -3.009744287E-01
 1.061007660E-02 -2.965410352E-01
 1.019324362E-02 -2.908915281E-01
 9.786547162E-03 -2.878897190E-01
 9.389444254E-03 -2.888441384E-01
 9.001806378E-03 -2.899678946E-01
 8.623584174E-03 -2.916457951E-01
 8.254772052E-03 -2.939240932E-01
 7.895328104E-03 -2.966179848E-01
 7.545236498E-03 -2.994504571E-01
 7.204530761E-03 -3.021289706E-01
 6.873171311E-03 -3.044072390E-01
 6.551199593E-03 -3.059774041E-01
 6.238665897E-03 -3.065777421E-01
 5.935526919E-03 -3.059158325E-01
 5.641892552E-03 -3.036837280E-01
 5.357792135E-03 -2.996197641E-01
 5.083175376E-03 -2.934468687E-01
 4.818195011E-03 -2.848879397E-01
 4.562828690E-03 -2.737428546E-01
 4.316995386E-03 -2.598268986E-01
 4.080845043E-03 -2.430169135E-01
 3.854274284E-03 -2.232667208E-01
 3.637133632E-03 -2.006071061E-01
 3.429513192E-03 -1.751766056E-01
 3.231222741E-03 -1.471291780E-01
 3.042007098E-03 -1.168034673E-01
 2.861846006E-03 -8.455353230E-02
 2.690493362E-03 -5.079501495E-02
 2.527598292E-03 -1.591275074E-02
 2.372958232E-03 1.929278113E-02
 2.226354321E-03 5.505248904E-02
 2.087388886E-03 8.519347757E-02
 1.955782995E-03 1.176127344E-01
 1.832882059E-03 1.600995213E-01
 1.718537649E-03 2.034637481E-01
 1.612004358E-03 2.462891936E-01
 1.512641786E-03 2.886220217E-01
 1.420039567E-03 3.299235106E-01
 1.333664753E-03 3.698703051E-01
 1.253001625E-03 4.081237912E-01
 1.177590457E-03 4.445300400E-01
 1.107052551E-03 4.789505005E-01
 1.041079056E-03 5.113851428E-01
 9.793153731E-04 5.419110060E-01
 9.214414749E-04 5.705587864E-01
 8.671685355E-04 5.974670649E-01
 8.162400336E-04 6.226512790E-01
 7.684506127E-04 6.462345123E-01
 7.235798985E-04 6.683245301E-01
 6.814224180E-04 6.889984012E-01
 6.417906261E-04 7.083791494E-01
 6.045130431E-04 7.265129685E-01
 5.694334977E-04 7.435076833E-01
 5.364209646E-04 7.594094276E-01
 5.053424393E-04 7.743260264E-01
 4.760721931E-04 7.883189321E-01
 4.484944220E-04 8.014190197E-01
 4.225021112E-04 8.137186170E-01
 3.979962203E-04 8.252639771E-01
 3.748851304E-04 8.361011744E-01
 3.530888062E-04 8.462764621E-01
 3.325290454E-04 8.558359742E-01
 3.131311678E-04 8.648259044E-01
 2.948256733E-04 8.732616901E-01
 2.775479225E-04 8.811894655E-01
 2.612375538E-04 8.886554837E-01
 2.458382514E-04 8.956904411E-01
 2.312974975E-04 9.022943377E-01
 2.175667032E-04 9.085134268E-01
 2.046016161E-04 9.143630266E-01
 1.923586824E-04 9.198740125E-01
 1.807971275E-04 9.250617027E-01
 1.698786800E-04 9.299415350E-01
 1.595674548E-04 9.345442653E-01
 1.498297497E-04 9.388698936E-01
 1.406338997E-04 9.429492354E-01
 1.319501753E-04 9.467977285E-01
 1.237505348E-04 9.504152536E-01
 1.160087122E-04 9.538326263E-01
 1.087005658E-04 9.570345283E-01
 1.018026742E-04 9.600671530E-01
 9.529286035E-05 9.628995657E-01
 8.915021317E-05 9.655934572E-01
 8.335502935E-05 9.681026936E-01
 7.788869698E-05 9.704887271E-01
 7.273365190E-05 9.727208018E-01
 6.787331949E-05 9.748143554E-01
 6.329201278E-05 9.768001437E-01
 5.897494339E-05 9.786627889E-01
 5.490810508E-05 9.804022908E-01
 5.107825564E-05 9.820494056E-01
 4.747289131E-05 9.835888147E-01
 4.408036693E-05 9.850358367E-01
 4.088942660E-05 9.863904715E-01
 3.788941467E-05 9.876527190E-01
 3.507024303E-05 9.888534546E-01
 3.242235471E-05 9.899618030E-01
 2.993670751E-05 9.910085797E-01
 2.760472307E-05 9.919784069E-01
 2.541827780E-05 9.928866029E-01
 2.336967009E-05 9.937486649E-01
 2.145160215E-05 9.945337772E-01
 1.965715273E-05 9.952726364E-01
 1.797975892E-05 9.959499836E-01
 1.641319432E-05 9.965965152E-01
 1.495155902E-05 9.971814752E-01
 1.358925056E-05 9.977356791E-01
 1.232095474E-05 9.982282519E-01
 1.114163024E-05 9.987054467E-01
 1.004652768E-05 9.991210699E-01
 9.031105947E-06 9.995213151E-01
 8.091044037E-06 9.998753667E-01
 7.222245131E-06 1.000214100E+00
 6.420820682E-06 1.000506520E+00
 5.683079507E-06 1.000783682E+00
 5.005518233E-06 1.001014471E+00
 4.384811291E-06 1.001245499E+00
 3.817801371E-06 1.001430154E+00
 3.301492143E-06 1.001614928E+00
 2.833038479E-06 1.001753449E+00
 2.409740318E-06 1.001891971E+00
 2.029034022E-06 1.001999736E+00
 1.688486009E-06 1.002092123E+00
 1.385786504E-06 1.002169013E+00
 1.118742830E-06 1.002230644E+00
 8.852738347E-07 1.002276778E+00
 6.834043802E-07 1.002323031E+00
 5.112596568E-07 1.002338409E+00
 3.670607214E-07 1.002338409E+00
 2.491193243E-07 1.002338409E+00
 1.558336322E-07 1.002323031E+00
 8.568387244E-08 1.002292156E+00
 3.722830400E-08 1.002261400E+00
 9.099365705E-09 1.002199888E+00
 0.000000000E+00 1.002107501E+00
 9.136088330E-09 1.002076745E+00
 3.753262234E-08 1.002030492E+00
 8.674717833E-08 1.001953602E+00
 1.584429299E-07 1.001861215E+00
 2.543956725E-07 1.001753449E+00
 3.765014753E-07 1.001630306E+00
 5.267846177E-07 1.001491785E+00
 7.074062296E-07 1.001337767E+00
 9.206736991E-07 1.001168489E+00
 1.169050279E-06 1.000983715E+00
 1.455165943E-06 1.000768185E+00
 1.781828360E-06 1.000537276E+00
 2.152034995E-06 1.000290990E+00
 2.568986474E-06 1.000013947E+00
 3.036099770E-06 9.997214675E-01
 3.557023547E-06 9.993981719E-01
 4.135653398E-06 9.990594983E-01
 4.776150035E-06 9.986746907E-01
 5.482955657E-06 9.982590675E-01
 6.260815098E-06 9.978280067E-01
 7.114794244E-06 9.973508120E-01
 8.050305951E-06 9.968274236E-01
 9.073130968E-06 9.962732792E-01
 1.018944386E-05 9.956883192E-01
 1.140585937E-05 9.950417280E-01
 1.272939062E-05 9.943644404E-01
 1.416748910E-05 9.936255217E-01
 1.572817018E-05 9.928404689E-01
 1.742000495E-05 9.919937849E-01
 1.925214201E-05 9.910855293E-01
 2.123435843E-05 9.901311398E-01
 2.337710430E-05 9.890997410E-01
 2.569153912E-05 9.879913926E-01
 2.818959183E-05 9.868214726E-01
 3.088400626E-05 9.855591655E-01
 3.378840120E-05 9.842199087E-01
 3.691733582E-05 9.827883244E-01
 4.028635522E-05 9.812643528E-01
 4.391208131E-05 9.796326160E-01
 4.781228199E-05 9.779084921E-01
 5.200590749E-05 9.760612249E-01
 5.651255560E-05 9.740908146E-01
 6.135369767E-05 9.719973207E-01
 6.655229663E-05 9.697805643E-01
 7.213283970E-05 9.674099684E-01
 7.812149124E-05 9.648853540E-01
 8.454616182E-05 9.622068405E-01
 9.143664647E-05 9.593744278E-01
 9.882472659E-05 9.563418627E-01
 1.067443154E-04 9.531245232E-01
 1.152315599E-04 9.497225285E-01
 1.243247098E-04 9.461050034E-01
 1.340622839E-04 9.422565699E-01
 1.444871887E-04 9.381926060E-01
 1.556452189E-04 9.338823557E-01
 1.675850508E-04 9.293103814E-01
 1.803584455E-04 9.244613647E-01
 1.940203510E-04 9.193506241E-01
 2.086290624E-04 9.139320254E-01
 2.242464543E-04 9.082209468E-01
 2.409349836E-04 9.021711946E-01
 2.587575873E-04 8.957981467E-01
 2.777856134E-04 8.891018629E-01
 2.980943536E-04 8.820361495E-01
 3.197632032E-04 8.746009469E-01
 3.428756027E-04 8.667963147E-01
 3.675194166E-04 8.586222529E-01
 3.937832080E-04 8.500478864E-01
 4.217478563E-04 8.410579562E-01
 4.515093169E-04 8.316985369E-01
 4.831687256E-04 8.219389319E-01
 5.168315256E-04 8.117636442E-01
 5.526072346E-04 8.012189269E-01
 5.906074657E-04 7.902585268E-01
 6.309231394E-04 7.789287567E-01
 6.736622890E-04 7.672140598E-01
 7.189432508E-04 7.551761866E-01
 7.668873877E-04 7.427842021E-01
 8.176192059E-04 7.300843000E-01
 8.712525596E-04 7.170919776E-01
 9.278748767E-04 7.038225532E-01
 9.876071708E-04 6.903222203E-01
 1.050574356E-03 6.766217947E-01
 1.116902800E-03 6.627520323E-01
 1.186710899E-03 6.487436891E-01
 1.260070479E-03 6.346276402E-01
 1.337093418E-03 6.204653382E-01
 1.417899854E-03 6.062877178E-01
 1.502609928E-03 5.921254158E-01
 1.591327600E-03 5.780401230E-01
 1.684108633E-03 5.640164018E-01
 1.781058498E-03 5.500850677E-01
 1.882287790E-03 5.359690189E-01
 1.987906406E-03 5.223916769E-01
 2.097738907E-03 5.101690292E-01
 2.211534185E-03 4.972844720E-01
 2.329434268E-03 4.830606282E-01
 2.451587468E-03 4.685289264E-01
 2.578142099E-03 4.535661936E-01
 2.709213877E-03 4.382340014E-01
 2.844951116E-03 4.225785434E-01
 2.985515632E-03 4.066460133E-01
 3.131073900E-03 3.904671669E-01
 3.281754674E-03 3.740574121E-01
 3.437707433E-03 3.574629426E-01
 3.599108662E-03 3.407299221E-01
 3.766138339E-03 3.238737583E-01
 3.938932437E-03 3.069252074E-01
 4.117649049E-03 2.899151146E-01
 4.302477930E-03 2.729049921E-01
 4.493609536E-03 2.558948994E-01
 4.691177048E-03 2.389155775E-01
 4.895357881E-03 2.220132202E-01
 5.106354132E-03 2.052340209E-01
 5.324353930E-03 1.885933727E-01
 5.549492314E-03 1.721066535E-01
 5.781971384E-03 1.558508426E-01
 6.022005808E-03 1.398413330E-01
 6.269752979E-03 1.241089031E-01
 6.525381934E-03 1.086997464E-01
 6.789113861E-03 9.364464879E-02
 7.061153185E-03 7.900518179E-02
 7.341639139E-03 6.479673833E-02
 7.630790118E-03 5.109629408E-02
 7.928836159E-03 3.795002028E-02
 8.235924877E-03 2.541949786E-02
 8.552256972E-03 1.358169597E-02
 8.878069930E-03 2.452006331E-03
 9.213547222E-03 -7.984964177E-03
 9.558859281E-03 -1.814484596E-02
 9.914254770E-03 -2.724255994E-02
 1.027964428E-02 -3.281510249E-02
 1.065458171E-02 -3.883406147E-02
 1.103932597E-02 -4.748535529E-02
 1.143415272E-02 -5.624440685E-02
 1.183930133E-02 -6.537290663E-02
 1.225505583E-02 -7.462456077E-02
 1.268169191E-02 -8.389160037E-02
 1.311944425E-02 -9.309706837E-02
 1.356859971E-02 -1.021332070E-01
 1.402942371E-02 -1.109230444E-01
 1.450214814E-02 -1.194050089E-01
 1.498705801E-02 -1.275329143E-01
 1.548440382E-02 -1.352605820E-01
 1.599442028E-02 -1.425572336E-01
 1.651739143E-02 -1.493920535E-01
 1.705354452E-02 -1.557650715E-01
 1.760313101E-02 -1.616454870E-01
 1.816642471E-02 -1.670487076E-01
 1.874364167E-02 -1.719439179E-01
 1.933504827E-02 -1.763465405E-01
 1.994090714E-02 -1.802257597E-01
 2.056143992E-02 -1.835969985E-01
 2.119692415E-02 -1.864294410E-01
 2.184761129E-02 -1.886923313E-01
 2.251373976E-02 -1.904164255E-01
 2.319559827E-02 -1.916479319E-01
 2.389342897E-02 -1.928640455E-01
 2.460749634E-02 -1.946035326E-01
 2.533790283E-02 -1.913092732E-01
 2.608367801E-02 -1.879842132E-01
 2.684505098E-02 -1.909860075E-01
 2.762253582E-02 -1.960043609E-01
 2.841666900E-02 -2.027468383E-01
 2.922801860E-02 -2.106592357E-01
 3.005714715E-02 -2.193567008E-01
 3.090462647E-02 -2.284236252E-01
 3.177102283E-02 -2.375213504E-01
 3.265686706E-02 -2.462957799E-01
 3.356269374E-02 -2.545160651E-01
 3.448896855E-02 -2.619512379E-01
 3.543617576E-02 -2.684935927E-01
 3.640473634E-02 -2.740661204E-01
 3.739504889E-02 -2.786226869E-01
 3.840752691E-02 -2.822094262E-01
 3.944249451E-02 -2.848263681E-01
 4.050034285E-02 -2.865812480E-01
 4.158139601E-02 -2.875202894E-01
 4.268599302E-02 -2.877204120E-01
 4.381449521E-02 -2.872585952E-01
 4.496720061E-02 -2.862118185E-01
 4.614447430E-02 -2.846262455E-01
 4.734666646E-02 -2.825942636E-01
 4.857409373E-02 -2.804237604E-01
 4.982713982E-02 -2.776374817E-01
 5.110596120E-02 -2.735119462E-01
 5.241059884E-02 -2.700945437E-01
 5.374143273E-02 -2.681703269E-01
 5.509884655E-02 -2.667233050E-01
 5.648323894E-02 -2.658766508E-01
 5.789502338E-02 -2.655533850E-01
 5.933462828E-02 -2.657227218E-01
 6.080247462E-02 -2.663384676E-01
 6.229900941E-02 -2.673698366E-01
 6.382468343E-02 -2.688168585E-01
 6.537993252E-02 -2.706179321E-01
 6.696522981E-02 -2.728038430E-01
 6.858104467E-02 -2.753130198E-01
 7.022784650E-02 -2.781762779E-01
 7.190610468E-02 -2.813473940E-01
 7.361631095E-02 -2.848417759E-01
 7.535895705E-02 -2.886440158E-01
 7.713454217E-02 -2.927541733E-01
 7.894356549E-02 -2.971413732E-01
 8.078654110E-02 -3.018210828E-01
 8.266399056E-02 -3.067624867E-01
 8.457645029E-02 -3.119655848E-01
 8.652444184E-02 -3.173841834E-01
 8.850853145E-02 -3.230029047E-01
 9.052927792E-02 -3.287293911E-01
 9.258724749E-02 -3.345174193E-01
 9.468306601E-02 -3.401977420E-01
 9.681734443E-02 -3.456932902E-01
 9.899071604E-02 -3.509733677E-01
 1.012038812E-01 -3.551296890E-01
 1.034572199E-01 -3.579159379E-01
 1.057511643E-01 -3.600710928E-01
 1.080861017E-01 -3.616258502E-01
 1.104624495E-01 -3.626418412E-01
 1.128805801E-01 -3.631960154E-01
 1.153408885E-01 -3.633345664E-01
 1.178437248E-01 -3.631036580E-01
 1.203894615E-01 -3.625494838E-01
 1.229784340E-01 -3.617644012E-01
 1.256109774E-01 -3.607637882E-01
 1.282874197E-01 -3.596400619E-01
 1.310080588E-01 -3.584855199E-01
 1.337732077E-01 -3.573617637E-01
 1.365831196E-01 -3.564381599E-01
 1.394380629E-01 -3.558224142E-01
 1.423382759E-01 -3.556684554E-01
 1.452840120E-01 -3.559455574E-01
 1.482754499E-01 -3.564227521E-01
 1.513128877E-01 -3.597477973E-01
 1.543972790E-01 -3.639503121E-01
 1.575290263E-01 -3.658129573E-01
 1.607083827E-01 -3.671214283E-01
 1.639355719E-01 -3.680142462E-01
 1.672107875E-01 -3.686146140E-01
 1.705342084E-01 -3.689840734E-01
 1.739060134E-01 -3.691841960E-01
 1.773263365E-01 -3.692765534E-01
 1.807952970E-01 -3.693073392E-01
 1.843129992E-01 -3.693689108E-01
 1.878795326E-01 -3.695382476E-01
 1.914949417E-01 -3.698615134E-01
 1.951592714E-01 -3.702463508E-01
 1.988725364E-01 -3.709082901E-01
 2.026348412E-01 -3.729556501E-01
 2.064464837E-01 -3.746951520E-01
 2.103074640E-01 -3.749876320E-01
 2.142176777E-01 -3.750492036E-01
 2.181770205E-01 -3.748029172E-01
 2.221853733E-01 -3.744026721E-01
 2.262425721E-01 -3.738792837E-01
 2.303484231E-01 -3.733404875E-01
 2.345027179E-01 -3.728479147E-01
 2.387052178E-01 -3.724938333E-01
 2.429556400E-01 -3.722937107E-01
 2.472537011E-01 -3.721244037E-01
 2.515990734E-01 -3.730634153E-01
 2.559916377E-01 -3.744488657E-01
 2.604311109E-01 -3.749260604E-01
 2.649170458E-01 -3.751877546E-01
 2.694490254E-01 -3.753108978E-01
 2.740266323E-01 -3.753878772E-01
 2.786493599E-01 -3.754340410E-01
 2.833167017E-01 -3.754956424E-01
 2.880280614E-01 -3.756341636E-01
 2.927829027E-01 -3.758958578E-01
 2.975806296E-01 -3.762653172E-01
 3.024205267E-01 -3.769118488E-01
 3.073019981E-01 -3.779124618E-01
 3.122243881E-01 -3.791285455E-01
 3.171869516E-01 -3.804370165E-01
 3.221889734E-01 -3.817916811E-01
 3.272297084E-01 -3.831463158E-01
 3.323082924E-01 -3.844547868E-01
 3.374239206E-01 -3.856555223E-01
 3.425757289E-01 -3.867792487E-01
 3.477627635E-01 -3.877798617E-01
 3.529841304E-01 -3.880877197E-01
 3.582387567E-01 -3.883648217E-01
 3.635256588E-01 -3.892268538E-01
 3.688438237E-01 -3.901042938E-01
 3.741921782E-01 -3.909663558E-01
 3.795696199E-01 -3.917052448E-01
 3.849750459E-01 -3.922902346E-01
 3.904072940E-01 -3.926288784E-01
 3.958651721E-01 -3.927212358E-01
 4.013474882E-01 -3.923825920E-01
 4.068529904E-01 -3.915051520E-01
 4.123803973E-01 -3.903044164E-01
 4.179284573E-01 -3.889035881E-01
 4.234958887E-01 -3.873026371E-01
 4.290813506E-01 -3.855477571E-01
 4.346835315E-01 -3.836697042E-01
 4.403010905E-01 -3.816839159E-01
 4.459326863E-01 -3.794518113E-01
 4.515769482E-01 -3.776353598E-01
 4.572324455E-01 -3.757727146E-01
 4.628977478E-01 -3.730326295E-01
 4.685714841E-01 -3.699076772E-01
 4.742522538E-01 -3.666134179E-01
 4.799386859E-01 -3.632268012E-01
 4.856293797E-01 -3.598247766E-01
 4.913229942E-01 -3.564381599E-01
 4.970181286E-01 -3.530361354E-01
 5.027133822E-01 -3.502652645E-01
 5.084072948E-01 -3.476791084E-01
 5.140982866E-01 -3.446003497E-01
 5.197851062E-01 -3.413984478E-01
 5.254663229E-01 -3.381349742E-01
 5.311404467E-01 -3.348099291E-01
 5.368062258E-01 -3.314540684E-01
 5.424621701E-01 -3.280674517E-01
 5.481070280E-01 -3.246654272E-01
 5.537393093E-01 -3.214173317E-01
 5.593577027E-01 -3.181230724E-01
 5.649608374E-01 -3.146133125E-01
 5.705474019E-01 -3.110573292E-01
 5.761160851E-01 -3.074398041E-01
 5.816655755E-01 -3.037607074E-01
 5.871946812E-01 -3.000507951E-01
 5.927020907E-01 -2.962793410E-01
 5.981865525E-01 -2.924616635E-01
 6.036469936E-01 -2.887363732E-01
 6.090819836E-01 -2.849033475E-01
 6.144904494E-01 -2.808240056E-01
 6.198713183E-01 -2.766676843E-01
 6.252234578E-01 -2.724497914E-01
 6.305457950E-01 -2.682011127E-01
 6.358372569E-01 -2.639370263E-01
 6.410969496E-01 -2.596421838E-01
 6.463238001E-01 -2.552857399E-01
 6.515168548E-01 -2.511294186E-01
 6.566750407E-01 -2.470192909E-01
 6.617975235E-01 -2.426012903E-01
 6.668834090E-01 -2.380601168E-01
 6.719318032E-01 -2.334727794E-01
 6.769419909E-01 -2.288546562E-01
 6.819131970E-01 -2.242365330E-01
 6.868446469E-01 -2.196183950E-01
 6.917357445E-01 -2.150310576E-01
 6.965857744E-01 -2.103975415E-01
 7.013940811E-01 -2.059949189E-01
 7.061598897E-01 -2.017154545E-01
 7.108826041E-01 -1.971281171E-01
 7.155616879E-01 -1.924638003E-01
 7.201966643E-01 -1.877686977E-01
 7.247869968E-01 -1.830582172E-01
 7.293322682E-01 -1.783477217E-01
 7.338320613E-01 -1.736680269E-01
 7.382860184E-01 -1.690037102E-01
 7.426938415E-01 -1.643855870E-01
 7.470550537E-01 -1.596750915E-01
 7.513694763E-01 -1.553494483E-01
 7.556365132E-01 -1.511007696E-01
 7.598559260E-01 -1.463594884E-01
 7.640274763E-01 -1.414796710E-01
 7.681511045E-01 -1.365382671E-01
 7.722266912E-01 -1.315968633E-01
 7.762541771E-01 -1.266862601E-01
 7.802335024E-01 -1.218218282E-01
 7.841645479E-01 -1.170651615E-01
 7.880474329E-01 -1.124008521E-01
 7.918820977E-01 -1.078596860E-01
 7.956685424E-01 -1.033647135E-01
 7.994068861E-01 -9.906984866E-02
 8.030970097E-01 -9.531377256E-02
 8.067386746E-01 -9.143454581E-02
 8.103320599E-01 -8.720126003E-02
 8.138772249E-01 -8.301416039E-02
 8.173744082E-01 -7.881166041E-02
 8.208237290E-01 -7.463995367E-02
 8.242253661E-01 -7.049903274E-02
 8.275795579E-01 -6.643507630E-02
 8.308865428E-01 -6.243269891E-02
 8.341464400E-01 -5.852268264E-02