# CFD data extracted (using Tecplot) by interpolating from original grid onto fixed set of points
# SA model
VARIABLES = "X","Y","u/Uref"
ZONE T="CFL3D, x=1.01"
 1.009999990E+00 -2.000000000E+01 9.999331236E-01
 1.009999990E+00 -1.935783958E+01 9.999003410E-01
 1.009999990E+00 -1.873642540E+01 9.998480678E-01
 1.009999990E+00 -1.813489723E+01 9.998059273E-01
 1.009999990E+00 -1.755247307E+01 9.997659326E-01
 1.009999990E+00 -1.698842812E+01 9.997276068E-01
 1.009999990E+00 -1.644208908E+01 9.996904731E-01
 1.009999990E+00 -1.591282177E+01 9.996542931E-01
 1.009999990E+00 -1.540002155E+01 9.996186495E-01
 1.009999990E+00 -1.490311527E+01 9.995833039E-01
 1.009999990E+00 -1.442155170E+01 9.995482564E-01
 1.009999990E+00 -1.395480156E+01 9.995131493E-01
 1.009999990E+00 -1.350235271E+01 9.994780421E-01
 1.009999990E+00 -1.306371021E+01 9.994427562E-01
 1.009999990E+00 -1.263839531E+01 9.994072318E-01
 1.009999990E+00 -1.222593880E+01 9.993712902E-01
 1.009999990E+00 -1.182589436E+01 9.993349910E-01
 1.009999990E+00 -1.143781471E+01 9.992980957E-01
 1.009999990E+00 -1.106141567E+01 9.992607832E-01
 1.009999990E+00 -1.069646168E+01 9.992228150E-01
 1.009999990E+00 -1.034272861E+01 9.991843700E-01
 1.009999990E+00 -9.999948502E+00 9.991451502E-01
 1.009999990E+00 -9.667881966E+00 9.991053343E-01
 1.009999990E+00 -9.346258163E+00 9.990647435E-01
 1.009999990E+00 -9.034824371E+00 9.990235567E-01
 1.009999990E+00 -8.733310699E+00 9.989816546E-01
 1.009999990E+00 -8.441459656E+00 9.989389181E-01
 1.009999990E+00 -8.159008026E+00 9.988955855E-01
 1.009999990E+00 -7.885692596E+00 9.988514185E-01
 1.009999990E+00 -7.621260166E+00 9.988064170E-01
 1.009999990E+00 -7.365450859E+00 9.987607002E-01
 1.009999990E+00 -7.118018627E+00 9.987141490E-01
 1.009999990E+00 -6.878712177E+00 9.986669421E-01
 1.009999990E+00 -6.647291660E+00 9.986189008E-01
 1.009999990E+00 -6.423519135E+00 9.985701442E-01
 1.009999990E+00 -6.207160950E+00 9.985205531E-01
 1.009999990E+00 -5.997991562E+00 9.984703064E-01
 1.009999990E+00 -5.795789719E+00 9.984191656E-01
 1.009999990E+00 -5.600339890E+00 9.983674884E-01
 1.009999990E+00 -5.411433220E+00 9.983150959E-01
 1.009999990E+00 -5.228827953E+00 9.982620478E-01
 1.009999990E+00 -5.052223682E+00 9.982083440E-01
 1.009999990E+00 -4.881423950E+00 9.981541038E-01
 1.009999990E+00 -4.716265202E+00 9.980992675E-01
 1.009999990E+00 -4.556583405E+00 9.980438948E-01
 1.009999990E+00 -4.402204514E+00 9.979879856E-01
 1.009999990E+00 -4.252981186E+00 9.979317784E-01
 1.009999990E+00 -4.108750820E+00 9.978751540E-01
 1.009999990E+00 -3.969357491E+00 9.978182316E-01
 1.009999990E+00 -3.834659100E+00 9.977611899E-01
 1.009999990E+00 -3.704500675E+00 9.977040291E-01
 1.009999990E+00 -3.578741312E+00 9.976466894E-01
 1.009999990E+00 -3.457240820E+00 9.975894094E-01
 1.009999990E+00 -3.339855671E+00 9.975321889E-01
 1.009999990E+00 -3.226454258E+00 9.974751472E-01
 1.009999990E+00 -3.116902113E+00 9.974184036E-01
 1.009999990E+00 -3.011067867E+00 9.973619580E-01
 1.009999990E+00 -2.908826351E+00 9.973059297E-01
 1.009999990E+00 -2.810053110E+00 9.972503781E-01
 1.009999990E+00 -2.714627981E+00 9.971953034E-01
 1.009999990E+00 -2.622434855E+00 9.971410036E-01
 1.009999990E+00 -2.533361197E+00 9.970872998E-01
 1.009999990E+00 -2.447297573E+00 9.970341921E-01
 1.009999990E+00 -2.364140272E+00 9.969818592E-01
 1.009999990E+00 -2.283789158E+00 9.969303012E-01
 1.009999990E+00 -2.206146479E+00 9.968795180E-01
 1.009999990E+00 -2.131122589E+00 9.968294501E-01
 1.009999990E+00 -2.058630943E+00 9.967800379E-01
 1.009999990E+00 -1.988584638E+00 9.967314005E-01
 1.009999990E+00 -1.920913339E+00 9.966832399E-01
 1.009999990E+00 -1.855541468E+00 9.966354370E-01
 1.009999990E+00 -1.792391539E+00 9.965877533E-01
 1.009999990E+00 -1.731388450E+00 9.965401888E-01
 1.009999990E+00 -1.672460914E+00 9.964924455E-01
 1.009999990E+00 -1.615538955E+00 9.964442253E-01
 1.009999990E+00 -1.560554504E+00 9.963952303E-01
 1.009999990E+00 -1.507442951E+00 9.963451624E-01
 1.009999990E+00 -1.456141472E+00 9.962933660E-01
 1.009999990E+00 -1.406588554E+00 9.962395430E-01
 1.009999990E+00 -1.358725309E+00 9.961831570E-01
 1.009999990E+00 -1.312495232E+00 9.961236119E-01
 1.009999990E+00 -1.267842770E+00 9.960602522E-01
 1.009999990E+00 -1.224714160E+00 9.959924221E-01
 1.009999990E+00 -1.183058500E+00 9.959194064E-01
 1.009999990E+00 -1.142825365E+00 9.958406687E-01
 1.009999990E+00 -1.103965998E+00 9.957552552E-01
 1.009999990E+00 -1.066433787E+00 9.956623912E-01
 1.009999990E+00 -1.030183315E+00 9.955613017E-01
 1.009999990E+00 -9.951701760E-01 9.954511523E-01
 1.009999990E+00 -9.613518715E-01 9.953311682E-01
 1.009999990E+00 -9.286869764E-01 9.952003956E-01
 1.009999990E+00 -8.971354365E-01 9.950581193E-01
 1.009999990E+00 -8.666585088E-01 9.949034452E-01
 1.009999990E+00 -8.372187614E-01 9.947355986E-01
 1.009999990E+00 -8.087800145E-01 9.945538044E-01
 1.009999990E+00 -7.813075185E-01 9.943575263E-01
 1.009999990E+00 -7.547675371E-01 9.941458106E-01
 1.009999990E+00 -7.291278839E-01 9.939182401E-01
 1.009999990E+00 -7.043573856E-01 9.936741590E-01
 1.009999990E+00 -6.804260612E-01 9.934130311E-01
 1.009999990E+00 -6.573053598E-01 9.931344390E-01
 1.009999990E+00 -6.349676251E-01 9.928380847E-01
 1.009999990E+00 -6.133861542E-01 9.925238490E-01
 1.009999990E+00 -5.925353169E-01 9.921919703E-01
 1.009999990E+00 -5.723937154E-01 9.918413758E-01
 1.009999990E+00 -5.529382825E-01 9.914712310E-01
 1.009999990E+00 -5.341456532E-01 9.910821319E-01
 1.009999990E+00 -5.159932971E-01 9.906749129E-01
 1.009999990E+00 -4.984593987E-01 9.902497530E-01
 1.009999990E+00 -4.815229774E-01 9.898068309E-01
 1.009999990E+00 -4.651636481E-01 9.893460870E-01
 1.009999990E+00 -4.493618011E-01 9.888678193E-01
 1.009999990E+00 -4.340984523E-01 9.883723855E-01
 1.009999990E+00 -4.193552732E-01 9.878602624E-01
 1.009999990E+00 -4.051145911E-01 9.873318076E-01
 1.009999990E+00 -3.913592696E-01 9.867876172E-01
 1.009999990E+00 -3.780727983E-01 9.862281084E-01
 1.009999990E+00 -3.652392030E-01 9.856538177E-01
 1.009999990E+00 -3.528430760E-01 9.850655198E-01
 1.009999990E+00 -3.408695161E-01 9.844635129E-01
 1.009999990E+00 -3.293041289E-01 9.838485718E-01
 1.009999990E+00 -3.181329966E-01 9.832212329E-01
 1.009999990E+00 -3.073426485E-01 9.825819731E-01
 1.009999990E+00 -2.969201505E-01 9.819316268E-01
 1.009999990E+00 -2.868529260E-01 9.812706709E-01
 1.009999990E+00 -2.771288455E-01 9.805996418E-01
 1.009999990E+00 -2.677361369E-01 9.799191356E-01
 1.009999990E+00 -2.586635351E-01 9.792298675E-01
 1.009999990E+00 -2.499000579E-01 9.785321355E-01
 1.009999990E+00 -2.414351106E-01 9.778267145E-01
 1.009999990E+00 -2.332584411E-01 9.771140814E-01
 1.009999990E+00 -2.253601849E-01 9.763946533E-01
 1.009999990E+00 -2.177307606E-01 9.756690264E-01
 1.009999990E+00 -2.103609294E-01 9.749376774E-01
 1.009999990E+00 -2.032417506E-01 9.742009044E-01
 1.009999990E+00 -1.963646263E-01 9.734593630E-01
 1.009999990E+00 -1.897211969E-01 9.727134109E-01
 1.009999990E+00 -1.833034307E-01 9.719634056E-01
 1.009999990E+00 -1.771035492E-01 9.712097645E-01
 1.009999990E+00 -1.711140722E-01 9.704527855E-01
 1.009999990E+00 -1.653277576E-01 9.696929455E-01
 1.009999990E+00 -1.597376317E-01 9.689304829E-01
 1.009999990E+00 -1.543369889E-01 9.681658745E-01
 1.009999990E+00 -1.491193026E-01 9.673992395E-01
 1.009999990E+00 -1.440783441E-01 9.666310549E-01
 1.009999990E+00 -1.392080635E-01 9.658614397E-01
 1.009999990E+00 -1.345026344E-01 9.650906920E-01
 1.009999990E+00 -1.299564689E-01 9.643191695E-01
 1.009999990E+00 -1.255641431E-01 9.635472894E-01
 1.009999990E+00 -1.213204339E-01 9.627745748E-01
 1.009999990E+00 -1.172202975E-01 9.620027542E-01
 1.009999990E+00 -1.132588461E-01 9.612320065E-01
 1.009999990E+00 -1.094313934E-01 9.604587555E-01
 1.009999990E+00 -1.057334840E-01 9.596869349E-01
 1.009999990E+00 -1.021610349E-01 9.589162469E-01
 1.009999990E+00 -9.870979190E-02 9.581457973E-01
 1.009999990E+00 -9.537564218E-02 9.573766589E-01
 1.009999990E+00 -9.215459973E-02 9.566091299E-01
 1.009999990E+00 -8.904282004E-02 9.558432698E-01
 1.009999990E+00 -8.603659272E-02 9.550790787E-01
 1.009999990E+00 -8.313232660E-02 9.543169141E-01
 1.009999990E+00 -8.032655716E-02 9.535566568E-01
 1.009999990E+00 -7.761594653E-02 9.527983665E-01
 1.009999990E+00 -7.499725372E-02 9.520423412E-01
 1.009999990E+00 -7.246736437E-02 9.512885213E-01
 1.009999990E+00 -7.002326101E-02 9.505370259E-01
 1.009999990E+00 -6.766202301E-02 9.497882128E-01
 1.009999990E+00 -6.538084894E-02 9.490419030E-01
 1.009999990E+00 -6.317700446E-02 9.482983351E-01
 1.009999990E+00 -6.104788184E-02 9.475575686E-01
 1.009999990E+00 -5.899093673E-02 9.468197823E-01
 1.009999990E+00 -5.700372905E-02 9.460850954E-01
 1.009999990E+00 -5.508388579E-02 9.453533888E-01
 1.009999990E+00 -5.322912708E-02 9.446250796E-01
 1.009999990E+00 -5.143724382E-02 9.438999295E-01
 1.009999990E+00 -4.970610887E-02 9.431782961E-01
 1.009999990E+00 -4.803365469E-02 9.424601197E-01
 1.009999990E+00 -4.641790316E-02 9.417455792E-01
 1.009999990E+00 -4.485693574E-02 9.410347342E-01
 1.009999990E+00 -4.334890097E-02 9.403277636E-01
 1.009999990E+00 -4.189200699E-02 9.396247268E-01
 1.009999990E+00 -4.048452526E-02 9.389255643E-01
 1.009999990E+00 -3.912478313E-02 9.382307529E-01
 1.009999990E+00 -3.781116754E-02 9.375399947E-01
 1.009999990E+00 -3.654212132E-02 9.368540049E-01
 1.009999990E+00 -3.531615436E-02 9.361720681E-01
 1.009999990E+00 -3.413181379E-02 9.354951978E-01
 1.009999990E+00 -3.298769146E-02 9.348227978E-01
 1.009999990E+00 -3.188243136E-02 9.341555238E-01
 1.009999990E+00 -3.081471846E-02 9.334927201E-01
 1.009999990E+00 -2.978328243E-02 9.328355193E-01
 1.009999990E+00 -2.878691442E-02 9.321857095E-01
 1.009999990E+00 -2.782441489E-02 9.315428734E-01
 1.009999990E+00 -2.689462155E-02 9.308646917E-01
 1.009999990E+00 -2.599640377E-02 9.299932122E-01
 1.009999990E+00 -2.512866817E-02 9.286518693E-01
 1.009999990E+00 -2.429035865E-02 9.265618920E-01
 1.009999990E+00 -2.348043397E-02 9.235870242E-01
 1.009999990E+00 -2.269789018E-02 9.197186828E-01
 1.009999990E+00 -2.194175869E-02 9.150466919E-01
 1.009999990E+00 -2.121111006E-02 9.096817970E-01
 1.009999990E+00 -2.050504647E-02 9.037368298E-01
 1.009999990E+00 -1.982271671E-02 8.973226547E-01
 1.009999990E+00 -1.916330121E-02 8.905230761E-01
 1.009999990E+00 -1.852601953E-02 8.834235072E-01
 1.009999990E+00 -1.791011542E-02 8.760920167E-01
 1.009999990E+00 -1.731486619E-02 8.685829639E-01
 1.009999990E+00 -1.673957519E-02 8.609498739E-01
 1.009999990E+00 -1.618356816E-02 8.532342911E-01
 1.009999990E+00 -1.564619876E-02 8.454675674E-01
 1.009999990E+00 -1.512684394E-02 8.376826644E-01
 1.009999990E+00 -1.462490298E-02 8.299055696E-01
 1.009999990E+00 -1.413979195E-02 8.221542835E-01
 1.009999990E+00 -1.367094647E-02 8.144461513E-01
 1.009999990E+00 -1.321781985E-02 8.067973256E-01
 1.009999990E+00 -1.277988404E-02 7.992199063E-01
 1.009999990E+00 -1.235662960E-02 7.917217016E-01
 1.009999990E+00 -1.194756292E-02 7.843102217E-01
 1.009999990E+00 -1.155220717E-02 7.769931555E-01
 1.009999990E+00 -1.117010135E-02 7.697762847E-01
 1.009999990E+00 -1.080079935E-02 7.626619935E-01
 1.009999990E+00 -1.044387184E-02 7.556524873E-01
 1.009999990E+00 -1.009890065E-02 7.487497926E-01
 1.009999990E+00 -9.765485302E-03 7.419559956E-01
 1.009999990E+00 -9.443235584E-03 7.352725267E-01
 1.009999990E+00 -9.131776169E-03 7.286983728E-01
 1.009999990E+00 -8.830745704E-03 7.222332954E-01
 1.009999990E+00 -8.539792150E-03 7.158757448E-01
 1.009999990E+00 -8.258575574E-03 7.096252441E-01
 1.009999990E+00 -7.986768149E-03 7.034806013E-01
 1.009999990E+00 -7.724053692E-03 6.974413991E-01
 1.009999990E+00 -7.470124401E-03 6.915047169E-01
 1.009999990E+00 -7.224685047E-03 6.856687665E-01
 1.009999990E+00 -6.987449713E-03 6.799314618E-01
 1.009999990E+00 -6.758141331E-03 6.742902398E-01
 1.009999990E+00 -6.536493078E-03 6.687428355E-01
 1.009999990E+00 -6.322246511E-03 6.632871628E-01
 1.009999990E+00 -6.115152966E-03 6.579212546E-01
 1.009999990E+00 -5.914971232E-03 6.526428461E-01
 1.009999990E+00 -5.721468013E-03 6.474490166E-01
 1.009999990E+00 -5.534418393E-03 6.423373222E-01
 1.009999990E+00 -5.353605375E-03 6.373053789E-01
 1.009999990E+00 -5.178818014E-03 6.323505044E-01
 1.009999990E+00 -5.009854678E-03 6.274701953E-01
 1.009999990E+00 -4.846517928E-03 6.226615310E-01
 1.009999990E+00 -4.688618705E-03 6.179224849E-01
 1.009999990E+00 -4.535974469E-03 6.132497787E-01
 1.009999990E+00 -4.388407338E-03 6.086413860E-01
 1.009999990E+00 -4.245747346E-03 6.040950418E-01
 1.009999990E+00 -4.107828252E-03 5.996076465E-01
 1.009999990E+00 -3.974491265E-03 5.951761603E-01
 1.009999990E+00 -3.845581785E-03 5.907980800E-01
 1.009999990E+00 -3.720950801E-03 5.864702463E-01
 1.009999990E+00 -3.600454656E-03 5.821896791E-01
 1.009999990E+00 -3.483953886E-03 5.779536366E-01
 1.009999990E+00 -3.371314146E-03 5.737589002E-01
 1.009999990E+00 -3.262405749E-03 5.696023107E-01
 1.009999990E+00 -3.157103201E-03 5.654808879E-01
 1.009999990E+00 -3.055284964E-03 5.613917708E-01
 1.009999990E+00 -2.956833923E-03 5.573319793E-01
 1.009999990E+00 -2.861637156E-03 5.532988906E-01
 1.009999990E+00 -2.769585000E-03 5.492894650E-01
 1.009999990E+00 -2.680571983E-03 5.453018546E-01
 1.009999990E+00 -2.594495658E-03 5.413343906E-01
 1.009999990E+00 -2.511257771E-03 5.373856425E-01
 1.009999990E+00 -2.430762630E-03 5.334544778E-01
 1.009999990E+00 -2.352918033E-03 5.295403600E-01
 1.009999990E+00 -2.277635271E-03 5.256433487E-01
 1.009999990E+00 -2.204828197E-03 5.217638612E-01
 1.009999990E+00 -2.134413458E-03 5.179029703E-01
 1.009999990E+00 -2.066311194E-03 5.140621662E-01
 1.009999990E+00 -2.000443172E-03 5.102435946E-01
 1.009999990E+00 -1.936735003E-03 5.064498186E-01
 1.009999990E+00 -1.875113929E-03 5.026836395E-01
 1.009999990E+00 -1.815509866E-03 4.989484549E-01
 1.009999990E+00 -1.757855178E-03 4.952479005E-01
 1.009999990E+00 -1.702084555E-03 4.915859103E-01
 1.009999990E+00 -1.648134785E-03 4.879664183E-01
 1.009999990E+00 -1.595944748E-03 4.843937457E-01
 1.009999990E+00 -1.545455540E-03 4.808718860E-01
 1.009999990E+00 -1.496609999E-03 4.774050415E-01
 1.009999990E+00 -1.449353062E-03 4.739973545E-01
 1.009999990E+00 -1.403631642E-03 4.706525505E-01
 1.009999990E+00 -1.359393937E-03 4.673743844E-01
 1.009999990E+00 -1.316590584E-03 4.641662240E-01
 1.009999990E+00 -1.275173272E-03 4.610312879E-01
 1.009999990E+00 -1.235095784E-03 4.579717219E-01
 1.009999990E+00 -1.196312951E-03 4.549904764E-01
 1.009999990E+00 -1.158781582E-03 4.520895779E-01
 1.009999990E+00 -1.122459769E-03 4.492709041E-01
 1.009999990E+00 -1.087306882E-03 4.465355575E-01
 1.009999990E+00 -1.053283806E-03 4.438847303E-01
 1.009999990E+00 -1.020352705E-03 4.413188100E-01
 1.009999990E+00 -9.884770261E-04 4.388382137E-01
 1.009999990E+00 -9.576214361E-04 4.364429414E-01
 1.009999990E+00 -9.277517092E-04 4.341322482E-01
 1.009999990E+00 -8.988348418E-04 4.319061041E-01
 1.009999990E+00 -8.708388777E-04 4.297626019E-01
 1.009999990E+00 -8.437330252E-04 4.277014732E-01
 1.009999990E+00 -8.174874238E-04 4.257211387E-01
 1.009999990E+00 -7.920732605E-04 4.238199294E-01
 1.009999990E+00 -7.674626540E-04 4.219957590E-01
 1.009999990E+00 -7.436286542E-04 4.202476740E-01
 1.009999990E+00 -7.205452421E-04 4.185727835E-01
 1.009999990E+00 -6.981872721E-04 4.169697464E-01
 1.009999990E+00 -6.765303551E-04 4.154359698E-01
 1.009999990E+00 -6.555509754E-04 4.139687717E-01
 1.009999990E+00 -6.352264318E-04 4.125666916E-01
 1.009999990E+00 -6.155346637E-04 4.112277329E-01
 1.009999990E+00 -5.964544252E-04 4.099485576E-01
 1.009999990E+00 -5.779651692E-04 4.087275863E-01
 1.009999990E+00 -5.600470467E-04 4.075624049E-01
 1.009999990E+00 -5.426807911E-04 4.064505696E-01
 1.009999990E+00 -5.258478341E-04 4.053899050E-01
 1.009999990E+00 -5.095301894E-04 4.043787122E-01
 1.009999990E+00 -4.937105114E-04 4.034150839E-01
 1.009999990E+00 -4.783718905E-04 4.024957120E-01
 1.009999990E+00 -4.634981742E-04 4.016195238E-01
 1.009999990E+00 -4.490735591E-04 4.007848501E-01
 1.009999990E+00 -4.350828531E-04 3.999890685E-01
 1.009999990E+00 -4.215113586E-04 3.992302716E-01
 1.009999990E+00 -4.083447857E-04 3.985073864E-01
 1.009999990E+00 -3.955693974E-04 3.978183270E-01
 1.009999990E+00 -3.831718350E-04 3.971617520E-01
 1.009999990E+00 -3.711392346E-04 3.965356946E-01
 1.009999990E+00 -3.594591108E-04 3.959389925E-01
 1.009999990E+00 -3.481193271E-04 3.953701556E-01
 1.009999990E+00 -3.371082421E-04 3.948278129E-01
 1.009999990E+00 -3.264145344E-04 3.943107128E-01
 1.009999990E+00 -3.160272317E-04 3.938170075E-01
 1.009999990E+00 -3.059357114E-04 3.933461905E-01
 1.009999990E+00 -2.961296996E-04 3.928967416E-01
 1.009999990E+00 -2.865992719E-04 3.924682438E-01
 1.009999990E+00 -2.773347951E-04 3.920584619E-01
 1.009999990E+00 -2.683268976E-04 3.916678131E-01
 1.009999990E+00 -2.595665574E-04 3.912942111E-01
 1.009999990E+00 -2.510449849E-04 3.909374177E-01
 1.009999990E+00 -2.427537402E-04 3.905967176E-01
 1.009999990E+00 -2.346845286E-04 3.902707100E-01
 1.009999990E+00 -2.268294047E-04 3.899587989E-01
 1.009999990E+00 -2.191806125E-04 3.896605670E-01
 1.009999990E+00 -2.117306431E-04 3.893753886E-01
 1.009999990E+00 -2.044722060E-04 3.891017735E-01
 1.009999990E+00 -1.973982435E-04 3.888397813E-01
 1.009999990E+00 -1.905019017E-04 3.885889649E-01
 1.009999990E+00 -1.837765012E-04 3.883487582E-01
 1.009999990E+00 -1.772155811E-04 3.881181479E-01
 1.009999990E+00 -1.708128548E-04 3.878966570E-01
 1.009999990E+00 -1.645622397E-04 3.876841664E-01
 1.009999990E+00 -1.584577694E-04 3.874802887E-01
 1.009999990E+00 -1.524936815E-04 3.872846365E-01
 1.009999990E+00 -1.466643589E-04 3.870962560E-01
 1.009999990E+00 -1.409643592E-04 3.869152963E-01
 1.009999990E+00 -1.353883417E-04 3.867408633E-01
 1.009999990E+00 -1.299311552E-04 3.865734339E-01
 1.009999990E+00 -1.245877211E-04 3.864119947E-01
 1.009999990E+00 -1.193531352E-04 3.862560689E-01
 1.009999990E+00 -1.142226029E-04 3.861056864E-01
 1.009999990E+00 -1.091914455E-04 3.859613240E-01
 1.009999990E+00 -1.042550866E-04 3.858211637E-01
 1.009999990E+00 -9.940905875E-05 3.856867254E-01
 1.009999990E+00 -9.464901086E-05 3.855561316E-01
 1.009999990E+00 -8.997067198E-05 3.854298294E-01
 1.009999990E+00 -8.536985843E-05 3.853077292E-01
 1.009999990E+00 -8.084248839E-05 3.851895928E-01
 1.009999990E+00 -7.638454554E-05 3.850747049E-01
 1.009999990E+00 -7.199210813E-05 3.849639595E-01
 1.009999990E+00 -6.766131264E-05 3.848566115E-01
 1.009999990E+00 -6.338836829E-05 3.847515285E-01
 1.009999990E+00 -5.916956070E-05 3.846504390E-01
 1.009999990E+00 -5.500121188E-05 3.845512569E-01
 1.009999990E+00 -5.087972022E-05 3.844558895E-01
 1.009999990E+00 -4.680152415E-05 3.843621910E-01
 1.009999990E+00 -4.276312029E-05 3.842713833E-01
 1.009999990E+00 -3.876104165E-05 3.841830492E-01
 1.009999990E+00 -3.479186489E-05 3.840964139E-01
 1.009999990E+00 -3.085220305E-05 3.840118945E-01
 1.009999990E+00 -2.693869828E-05 3.839299381E-01
 1.009999990E+00 -2.304802729E-05 3.838494122E-01
 1.009999990E+00 -1.917689042E-05 3.837706745E-01
 1.009999990E+00 -1.532200804E-05 3.836936951E-01
 1.009999990E+00 -1.148011779E-05 3.836184144E-01
 1.009999990E+00 -7.647975508E-06 3.835446239E-01
 1.009999990E+00 -3.822345661E-06 3.834723830E-01
 1.009999990E+00 0.000000000E+00 3.834037483E-01
 1.009999990E+00 3.822347935E-06 3.833321929E-01
 1.009999990E+00 7.647980055E-06 3.832641244E-01
 1.009999990E+00 1.148012416E-05 3.831973374E-01
 1.009999990E+00 1.532201532E-05 3.831316829E-01
 1.009999990E+00 1.917690133E-05 3.830672503E-01
 1.009999990E+00 2.304804002E-05 3.830039501E-01
 1.009999990E+00 2.693871284E-05 3.829417229E-01
 1.009999990E+00 3.085221761E-05 3.828800321E-01
 1.009999990E+00 3.479188308E-05 3.828199506E-01
 1.009999990E+00 3.876106348E-05 3.827608824E-01
 1.009999990E+00 4.276314212E-05 3.827022910E-01
 1.009999990E+00 4.680154962E-05 3.826447427E-01
 1.009999990E+00 5.087974569E-05 3.825886548E-01
 1.009999990E+00 5.500124098E-05 3.825325966E-01
 1.009999990E+00 5.916958980E-05 3.824785054E-01
 1.009999990E+00 6.338840467E-05 3.824244738E-01
 1.009999990E+00 6.766134902E-05 3.823724687E-01
 1.009999990E+00 7.199214451E-05 3.823204637E-01
 1.009999990E+00 7.638458919E-05 3.822695911E-01
 1.009999990E+00 8.084253204E-05 3.822203577E-01
 1.009999990E+00 8.536990208E-05 3.821717203E-01
 1.009999990E+00 8.997071563E-05 3.821243048E-01
 1.009999990E+00 9.464906179E-05 3.820781708E-01
 1.009999990E+00 9.940911696E-05 3.820332289E-01
 1.009999990E+00 1.042551376E-04 3.819887638E-01
 1.009999990E+00 1.091915037E-04 3.819466829E-01
 1.009999990E+00 1.142226683E-04 3.819051981E-01
 1.009999990E+00 1.193532007E-04 3.818658888E-01
 1.009999990E+00 1.245877793E-04 3.818282187E-01
 1.009999990E+00 1.299312280E-04 3.817918599E-01
 1.009999990E+00 1.353884290E-04 3.817571104E-01
 1.009999990E+00 1.409644319E-04 3.817248344E-01
 1.009999990E+00 1.466644462E-04 3.816942871E-01
 1.009999990E+00 1.524937543E-04 3.816661835E-01
 1.009999990E+00 1.584578567E-04 3.816401660E-01
 1.009999990E+00 1.645623270E-04 3.816169202E-01
 1.009999990E+00 1.708129566E-04 3.815965950E-01
 1.009999990E+00 1.772156829E-04 3.815794289E-01
 1.009999990E+00 1.837766031E-04 3.815651834E-01
 1.009999990E+00 1.905020035E-04 3.815540671E-01
 1.009999990E+00 1.973983599E-04 3.815468550E-01
 1.009999990E+00 2.044723224E-04 3.815438449E-01
 1.009999990E+00 2.117307595E-04 3.815452456E-01
 1.009999990E+00 2.191807289E-04 3.815504611E-01
 1.009999990E+00 2.268295357E-04 3.815609217E-01
 1.009999990E+00 2.346846741E-04 3.815768361E-01
 1.009999990E+00 2.427538711E-04 3.815982938E-01
 1.009999990E+00 2.510451304E-04 3.816255033E-01
 1.009999990E+00 2.595667029E-04 3.816595376E-01
 1.009999990E+00 2.683270432E-04 3.817007244E-01
 1.009999990E+00 2.773349406E-04 3.817488551E-01
 1.009999990E+00 2.865994466E-04 3.818057179E-01
 1.009999990E+00 2.961298742E-04 3.818703294E-01
 1.009999990E+00 3.059358860E-04 3.819445968E-01
 1.009999990E+00 3.160274064E-04 3.820284605E-01
 1.009999990E+00 3.264147381E-04 3.821229637E-01
 1.009999990E+00 3.371084458E-04 3.822279572E-01
 1.009999990E+00 3.481195308E-04 3.823449612E-01
 1.009999990E+00 3.594593145E-04 3.824746311E-01
 1.009999990E+00 3.711394675E-04 3.826178312E-01
 1.009999990E+00 3.831720969E-04 3.827754557E-01
 1.009999990E+00 3.955696302E-04 3.829481006E-01
 1.009999990E+00 4.083450476E-04 3.831370473E-01
 1.009999990E+00 4.215116205E-04 3.833430707E-01
 1.009999990E+00 4.350831150E-04 3.835677207E-01
 1.009999990E+00 4.490738502E-04 3.838111758E-01
 1.009999990E+00 4.634984653E-04 3.840747178E-01
 1.009999990E+00 4.783722106E-04 3.843604624E-01
 1.009999990E+00 4.937108024E-04 3.846693337E-01
 1.009999990E+00 5.095305387E-04 3.850014508E-01
 1.009999990E+00 5.258481833E-04 3.853596747E-01
 1.009999990E+00 5.426811404E-04 3.857452571E-01
 1.009999990E+00 5.600473960E-04 3.861590922E-01
 1.009999990E+00 5.779655767E-04 3.866024911E-01
 1.009999990E+00 5.964548327E-04 3.870770931E-01
 1.009999990E+00 6.155350711E-04 3.875851631E-01
 1.009999990E+00 6.352268392E-04 3.881276548E-01
 1.009999990E+00 6.555513828E-04 3.887057602E-01
 1.009999990E+00 6.765308208E-04 3.893230855E-01
 1.009999990E+00 6.981877377E-04 3.899792433E-01
 1.009999990E+00 7.205457659E-04 3.906768560E-01
 1.009999990E+00 7.436291780E-04 3.914183080E-01
 1.009999990E+00 7.674631779E-04 3.922041655E-01
 1.009999990E+00 7.920737844E-04 3.930377066E-01
 1.009999990E+00 8.174880059E-04 3.939191997E-01
 1.009999990E+00 8.437336073E-04 3.948512673E-01
 1.009999990E+00 8.708394598E-04 3.958364427E-01
 1.009999990E+00 8.988354239E-04 3.968751431E-01
 1.009999990E+00 9.277523495E-04 3.979697526E-01
 1.009999990E+00 9.576220764E-04 3.991215229E-01
 1.009999990E+00 9.884777246E-04 4.003333747E-01
 1.009999990E+00 1.020353404E-03 4.016054273E-01
 1.009999990E+00 1.053284504E-03 4.029391110E-01
 1.009999990E+00 1.087307581E-03 4.043371081E-01
 1.009999990E+00 1.122460468E-03 4.058009088E-01
 1.009999990E+00 1.158782397E-03 4.073315859E-01
 1.009999990E+00 1.196313766E-03 4.089292586E-01
 1.009999990E+00 1.235096599E-03 4.105964601E-01
 1.009999990E+00 1.275174203E-03 4.123339057E-01
 1.009999990E+00 1.316591515E-03 4.141412675E-01
 1.009999990E+00 1.359394984E-03 4.160206020E-01
 1.009999990E+00 1.403632574E-03 4.179721177E-01
 1.009999990E+00 1.449354109E-03 4.199962318E-01
 1.009999990E+00 1.496611047E-03 4.220932126E-01
 1.009999990E+00 1.545456587E-03 4.242635071E-01
 1.009999990E+00 1.595945912E-03 4.265070558E-01
 1.009999990E+00 1.648136065E-03 4.288233817E-01
 1.009999990E+00 1.702085836E-03 4.312132001E-01
 1.009999990E+00 1.757856458E-03 4.336751997E-01
 1.009999990E+00 1.815511147E-03 4.362098873E-01
 1.009999990E+00 1.875115326E-03 4.388163090E-01
 1.009999990E+00 1.936736517E-03 4.414938688E-01
 1.009999990E+00 2.000444802E-03 4.442420602E-01
 1.009999990E+00 2.066312591E-03 4.470608234E-01
 1.009999990E+00 2.134415088E-03 4.499488771E-01
 1.009999990E+00 2.204829827E-03 4.529058933E-01
 1.009999990E+00 2.277636901E-03 4.559317529E-01
 1.009999990E+00 2.352919895E-03 4.590256214E-01
 1.009999990E+00 2.430764493E-03 4.621873498E-01
 1.009999990E+00 2.511259634E-03 4.654169977E-01
 1.009999990E+00 2.594497753E-03 4.687141478E-01
 1.009999990E+00 2.680574078E-03 4.720793664E-01
 1.009999990E+00 2.769587096E-03 4.755126536E-01
 1.009999990E+00 2.861639485E-03 4.790145159E-01
 1.009999990E+00 2.956836252E-03 4.825851023E-01
 1.009999990E+00 3.055287292E-03 4.862261713E-01
 1.009999990E+00 3.157105530E-03 4.899387360E-01
 1.009999990E+00 3.262408311E-03 4.937232733E-01
 1.009999990E+00 3.371316940E-03 4.975824952E-01
 1.009999990E+00 3.483956680E-03 5.015181303E-01
 1.009999990E+00 3.600457450E-03 5.055314302E-01
 1.009999990E+00 3.720953828E-03 5.096252561E-01
 1.009999990E+00 3.845584812E-03 5.138015747E-01
 1.009999990E+00 3.974494524E-03 5.180630088E-01
 1.009999990E+00 4.107831512E-03 5.224118829E-01
 1.009999990E+00 4.245750606E-03 5.268509984E-01
 1.009999990E+00 4.388411064E-03 5.313836336E-01
 1.009999990E+00 4.535978194E-03 5.360124707E-01
 1.009999990E+00 4.688622896E-03 5.407406688E-01
 1.009999990E+00 4.846522119E-03 5.455702543E-01
 1.009999990E+00 5.009858869E-03 5.505048633E-01
 1.009999990E+00 5.178822670E-03 5.555475950E-01
 1.009999990E+00 5.353610031E-03 5.607022047E-01
 1.009999990E+00 5.534423050E-03 5.659719706E-01
 1.009999990E+00 5.721473135E-03 5.713602901E-01
 1.009999990E+00 5.914976355E-03 5.768707395E-01
 1.009999990E+00 6.115158554E-03 5.825069547E-01
 1.009999990E+00 6.322252564E-03 5.882728100E-01
 1.009999990E+00 6.536499131E-03 5.941718817E-01
 1.009999990E+00 6.758147385E-03 6.002063751E-01
 1.009999990E+00 6.987456232E-03 6.063804626E-01
 1.009999990E+00 7.224692032E-03 6.126970649E-01
 1.009999990E+00 7.470131386E-03 6.191606522E-01
 1.009999990E+00 7.724061143E-03 6.257742047E-01
 1.009999990E+00 7.986776531E-03 6.325415373E-01
 1.009999990E+00 8.258583955E-03 6.394671202E-01
 1.009999990E+00 8.539800532E-03 6.465522647E-01
 1.009999990E+00 8.830755018E-03 6.537995934E-01
 1.009999990E+00 9.131785482E-03 6.612110138E-01
 1.009999990E+00 9.443244897E-03 6.687902808E-01
 1.009999990E+00 9.765495546E-03 6.765393019E-01
 1.009999990E+00 1.009891182E-02 6.844610572E-01
 1.009999990E+00 1.044388302E-02 6.925552487E-01
 1.009999990E+00 1.080081146E-02 7.008211613E-01
 1.009999990E+00 1.117011346E-02 7.092584372E-01
 1.009999990E+00 1.155222021E-02 7.178671360E-01
 1.009999990E+00 1.194757689E-02 7.266472578E-01
 1.009999990E+00 1.235664450E-02 7.355939746E-01
 1.009999990E+00 1.277989987E-02 7.447008491E-01
 1.009999990E+00 1.321783569E-02 7.539624572E-01
 1.009999990E+00 1.367096324E-02 7.633734941E-01
 1.009999990E+00 1.413981058E-02 7.729237676E-01
 1.009999990E+00 1.462492254E-02 7.825976610E-01
 1.009999990E+00 1.512686349E-02 7.923799753E-01
 1.009999990E+00 1.564621925E-02 8.022566438E-01
 1.009999990E+00 1.618359052E-02 8.122025132E-01
 1.009999990E+00 1.673959941E-02 8.221848607E-01
 1.009999990E+00 1.731489226E-02 8.321776390E-01
 1.009999990E+00 1.791014336E-02 8.421414495E-01
 1.009999990E+00 1.852604933E-02 8.520220518E-01
 1.009999990E+00 1.916333288E-02 8.617714643E-01
 1.009999990E+00 1.982275024E-02 8.713232279E-01
 1.009999990E+00 2.050508372E-02 8.805887699E-01
 1.009999990E+00 2.121114731E-02 8.894918561E-01
 1.009999990E+00 2.194179967E-02 8.979109526E-01
 1.009999990E+00 2.269793302E-02 9.057220817E-01
 1.009999990E+00 2.348048054E-02 9.127839208E-01
 1.009999990E+00 2.429040708E-02 9.189232588E-01
 1.009999990E+00 2.512871847E-02 9.240130782E-01
 1.009999990E+00 2.599645779E-02 9.279443622E-01
 1.009999990E+00 2.689467557E-02 9.307699800E-01
 1.009999990E+00 2.782447077E-02 9.326697588E-01
 1.009999990E+00 2.878697403E-02 9.339663386E-01
 1.009999990E+00 2.978334390E-02 9.349713326E-01
 1.009999990E+00 3.081477992E-02 9.358928204E-01
 1.009999990E+00 3.188249841E-02 9.368142486E-01
 1.009999990E+00 3.298775852E-02 9.377497435E-01
 1.009999990E+00 3.413188085E-02 9.386969805E-01
 1.009999990E+00 3.531622514E-02 9.396534562E-01
 1.009999990E+00 3.654219210E-02 9.406197071E-01
 1.009999990E+00 3.781123832E-02 9.415950775E-01
 1.009999990E+00 3.912485763E-02 9.425805211E-01
 1.009999990E+00 4.048459977E-02 9.435750842E-01
 1.009999990E+00 4.189208150E-02 9.445791245E-01
 1.009999990E+00 4.334897920E-02 9.455922246E-01
 1.009999990E+00 4.485701397E-02 9.466144443E-01
 1.009999990E+00 4.641798139E-02 9.476456642E-01
 1.009999990E+00 4.803373292E-02 9.486856461E-01
 1.009999990E+00 4.970618710E-02 9.497343898E-01
 1.009999990E+00 5.143732578E-02 9.507915378E-01
 1.009999990E+00 5.322920904E-02 9.518572688E-01
 1.009999990E+00 5.508396775E-02 9.529309273E-01
 1.009999990E+00 5.700381100E-02 9.540129900E-01
 1.009999990E+00 5.899102241E-02 9.551028609E-01
 1.009999990E+00 6.104796752E-02 9.562004805E-01
 1.009999990E+00 6.317709386E-02 9.573056102E-01