# Normalized u'v' vs y from CFL3D, SST model
# U1=22.40 m/s, deltaU=19.14 m/s
# deltaw=13.771 mm at x=200
#       =35.894 mm at x=650
#       =50.547 mm at x=950
# (Note: this file was corrected on 6/14/2011.  Prior to this date, the 650mm and 950mm entries were not correct.)
VARIABLES = "y/deltaw","u'v'/deltaU**2"
ZONE T="x = 200 mm"
 -1.064821720E+01 5.091545675E-12
 -1.043905926E+01 4.439117910E-12
 -1.023461342E+01 3.790477914E-12
 -1.003477097E+01 2.256005929E-12
 -9.839425087E+00 7.969685567E-13
 -9.648471832E+00 2.935233653E-12
 -9.461811066E+00 5.007569880E-12
 -9.279343605E+00 5.534266188E-12
 -9.100972176E+00 6.046902128E-12
 -8.926602364E+00 6.379836329E-12
 -8.756142616E+00 6.705862428E-12
 -8.589501381E+00 7.103464518E-12
 -8.426591873E+00 7.491517823E-12
 -8.267328262E+00 7.842895604E-12
 -8.111624718E+00 8.185394203E-12
 -7.959400654E+00 8.455338860E-12
 -7.810575485E+00 8.718327275E-12
 -7.665070534E+00 8.915304259E-12
 -7.522809505E+00 9.107045847E-12
 -7.383717537E+00 9.238855340E-12
 -7.247721672E+00 9.366938648E-12
 -7.114749908E+00 9.438212364E-12
 -6.984733105E+00 9.507158949E-12
 -6.857603073E+00 9.522064560E-12
 -6.733292580E+00 9.535950155E-12
 -6.611737728E+00 9.498975391E-12
 -6.492874146E+00 9.462183641E-12
 -6.376639843E+00 9.377938530E-12
 -6.262974262E+00 9.294973645E-12
 -6.151818275E+00 9.168019642E-12
 -6.043114185E+00 9.043336392E-12
 -5.936804771E+00 8.878097042E-12
 -5.832835674E+00 8.716017491E-12
 -5.731152534E+00 8.516731591E-12
 -5.631701946E+00 8.321391319E-12
 -5.534433365E+00 8.092064345E-12
 -5.439296246E+00 7.867378624E-12
 -5.346241474E+00 7.611766252E-12
 -5.255220890E+00 7.361398817E-12
 -5.166187763E+00 7.082977867E-12
 -5.079095364E+00 6.810322705E-12
 -4.993899822E+00 6.512277696E-12
 -4.910557747E+00 6.220449936E-12
 -4.829025745E+00 5.905674821E-12
 -4.749261856E+00 5.597492955E-12
 -4.671226025E+00 5.268588083E-12
 -4.594877720E+00 4.946589579E-12
 -4.520178318E+00 4.605862133E-12
 -4.447089672E+00 4.272301696E-12
 -4.375575066E+00 3.921783471E-12
 -4.305597782E+00 3.578643892E-12
 -4.237122059E+00 3.220092162E-12
 -4.170114040E+00 2.869086912E-12
 -4.104539871E+00 2.504002431E-12
 -4.040365696E+00 2.146593667E-12
 -3.977559328E+00 1.776224025E-12
 -3.916090250E+00 1.413631365E-12
 -3.855926514E+00 1.038994086E-12
 -3.797038555E+00 6.722045880E-13
 -3.739396572E+00 2.940927124E-13
 -3.682971954E+00 -7.612198361E-14
 -3.627737284E+00 -4.571244641E-13
 -3.573664188E+00 -8.301939865E-13
 -3.520726442E+00 -1.213699172E-12
 -3.468897581E+00 -1.589249999E-12
 -3.418152094E+00 -1.975059439E-12
 -3.368465185E+00 -2.352895873E-12
 -3.319812059E+00 -2.740985173E-12
 -3.272169590E+00 -3.121088674E-12
 -3.225513458E+00 -3.511597480E-12
 -3.179821730E+00 -3.894109427E-12
 -3.135071754E+00 -4.287334376E-12
 -3.091241837E+00 -4.672552276E-12
 -3.048310995E+00 -5.068939626E-12
 -3.006258488E+00 -5.457301711E-12
 -2.965063572E+00 -5.857441268E-12
 -2.924707174E+00 -6.249527371E-12
 -2.885169268E+00 -6.654139913E-12
 -2.846431494E+00 -7.050665173E-12
 -2.808475256E+00 -7.460605050E-12
 -2.771282434E+00 -7.862411243E-12
 -2.734835386E+00 -8.278658141E-12
 -2.699117184E+00 -8.686700664E-12
 -2.664110661E+00 -9.110358301E-12
 -2.629799843E+00 -9.525727429E-12
 -2.596168041E+00 -9.958015315E-12
 -2.563199997E+00 -1.038191408E-11
 -2.530880928E+00 -1.082415754E-11
 -2.499194860E+00 -1.125788959E-11
 -2.468127728E+00 -1.171154406E-11
 -2.437664986E+00 -1.215654140E-11
 -2.407793045E+00 -1.262316293E-11
 -2.378498316E+00 -1.308095472E-11
 -2.349766970E+00 -1.356220518E-11
 -2.321586609E+00 -1.403443074E-11
 -2.293944120E+00 -1.453208821E-11
 -2.266827345E+00 -1.502049700E-11
 -2.240223885E+00 -1.553643499E-11
 -2.214122057E+00 -1.604287363E-11
 -2.188510418E+00 -1.657906451E-11
 -2.163377523E+00 -1.710548196E-11
 -2.138712406E+00 -1.766400567E-11
 -2.114504099E+00 -1.821245064E-11
 -2.090742111E+00 -1.879548600E-11
 -2.067416430E+00 -1.936809740E-11
 -2.044516563E+00 -1.997789954E-11
 -2.022032976E+00 -2.057691864E-11
 -1.999956131E+00 -2.121584505E-11
 -1.978276372E+00 -2.184359464E-11
 -1.956984758E+00 -2.251409476E-11
 -1.936072350E+00 -2.317298957E-11
 -1.915530086E+00 -2.387758567E-11
 -1.895349860E+00 -2.457012545E-11
 -1.875522971E+00 -2.531142310E-11
 -1.856041551E+00 -2.604018043E-11
 -1.836897492E+00 -2.682086497E-11
 -1.818082929E+00 -2.758849919E-11
 -1.799590468E+00 -2.841132191E-11
 -1.781412363E+00 -2.922056000E-11
 -1.763541818E+00 -3.008834501E-11
 -1.745971322E+00 -3.094196774E-11
 -1.728694201E+00 -3.185761030E-11
 -1.711703539E+00 -3.275849383E-11
 -1.694992781E+00 -3.372493951E-11
 -1.678555489E+00 -3.467600512E-11
 -1.662385464E+00 -3.569624457E-11
 -1.646476269E+00 -3.670048987E-11
 -1.630822182E+00 -3.777760396E-11
 -1.615417004E+00 -3.883806124E-11
 -1.600255251E+00 -3.997517248E-11
 -1.585331202E+00 -4.109493995E-11
 -1.570639491E+00 -4.229522982E-11
 -1.556174636E+00 -4.347747509E-11
 -1.541931272E+00 -4.474418058E-11
 -1.527904630E+00 -4.599212330E-11
 -1.514089465E+00 -4.732852305E-11
 -1.500481009E+00 -4.864543490E-11
 -1.487074256E+00 -5.005489079E-11
 -1.473865032E+00 -5.144410592E-11
 -1.460848331E+00 -5.292999719E-11
 -1.448019862E+00 -5.439491912E-11
 -1.435375333E+00 -5.596072911E-11
 -1.422910333E+00 -5.750483076E-11
 -1.410620928E+00 -5.915409135E-11
 -1.398503065E+00 -6.078086645E-11
 -1.386552572E+00 -6.251719975E-11
 -1.374765873E+00 -6.423027388E-11
 -1.363138914E+00 -6.605732628E-11
 -1.351668119E+00 -6.786038398E-11
 -1.340349913E+00 -6.978194411E-11
 -1.329180717E+00 -7.167872546E-11
 -1.318157077E+00 -7.369865135E-11
 -1.307275772E+00 -7.569305599E-11
 -1.296533465E+00 -7.781526118E-11
 -1.285926819E+00 -7.991120266E-11
 -1.275452852E+00 -8.213980190E-11
 -1.265108466E+00 -8.434135335E-11
 -1.254890561E+00 -8.668050999E-11
 -1.244796395E+00 -8.899183473E-11
 -1.234822989E+00 -9.144585089E-11
 -1.224967599E+00 -9.387134126E-11
 -1.215227365E+00 -9.644469945E-11
 -1.205599904E+00 -9.898879633E-11
 -1.196082354E+00 -1.016861179E-10
 -1.186672330E+00 -1.043534981E-10
 -1.177367330E+00 -1.071797234E-10
 -1.168164849E+00 -1.099753136E-10
 -1.159062624E+00 -1.129356192E-10
 -1.150058270E+00 -1.158645888E-10
 -1.141149521E+00 -1.189646437E-10
 -1.132334113E+00 -1.220327034E-10
 -1.123610020E+00 -1.252788984E-10
 -1.114975095E+00 -1.284923973E-10
 -1.106427193E+00 -1.318920806E-10
 -1.097964406E+00 -1.352584433E-10
 -1.089584827E+00 -1.388207604E-10
 -1.081286311E+00 -1.423491047E-10
 -1.073067069E+00 -1.460859073E-10
 -1.064925432E+00 -1.497880570E-10
 -1.056859374E+00 -1.537156791E-10
 -1.048867345E+00 -1.576078712E-10
 -1.040947437E+00 -1.617499190E-10
 -1.033098102E+00 -1.658557458E-10
 -1.025317788E+00 -1.702477465E-10
 -1.017604709E+00 -1.746025408E-10
 -1.009957433E+00 -1.792992976E-10
 -1.002374411E+00 -1.839575575E-10
 -9.948540330E-01 -1.890447104E-10
 -9.873951077E-01 -1.940917010E-10
 -9.799959660E-01 -1.997040450E-10
 -9.726553559E-01 -2.052738118E-10
 -9.653719664E-01 -2.116235381E-10
 -9.581443071E-01 -2.179272457E-10
 -9.509711862E-01 -2.253484066E-10
 -9.438512921E-01 -2.327182613E-10
 -9.367834330E-01 -2.417349099E-10
 -9.297664762E-01 -2.506921337E-10
 -9.227990508E-01 -2.621244610E-10
 -9.158802032E-01 -2.734850957E-10
 -9.090086222E-01 -2.886131334E-10
 -9.021833539E-01 -3.036509932E-10
 -8.954033256E-01 -3.244677860E-10
 -8.886673450E-01 -3.451666453E-10
 -8.819744587E-01 -3.747702981E-10
 -8.753237128E-01 -4.042136348E-10
 -8.687141538E-01 -4.474107196E-10
 -8.621446490E-01 -4.903845663E-10
 -8.556144238E-01 -5.546307302E-10
 -8.491225839E-01 -6.185570389E-10
 -8.426681161E-01 -7.154029036E-10
 -8.362501264E-01 -8.117870820E-10
 -8.298678994E-01 -9.591258898E-10
 -8.235206008E-01 -1.105785796E-09
 -8.172072768E-01 -1.331326605E-09
 -8.109272718E-01 -1.555865103E-09
 -8.046796322E-01 -1.902572766E-09
 -7.984637618E-01 -2.247801723E-09
 -7.922788858E-01 -2.782394315E-09
 -7.861242294E-01 -3.314794217E-09
 -7.799991369E-01 -4.140667809E-09
 -7.739029527E-01 -4.963259581E-09
 -7.678348422E-01 -6.239046169E-09
 -7.617942095E-01 -7.509960653E-09
 -7.557805181E-01 -9.479992791E-09
 -7.497929931E-01 -1.144282091E-08
 -7.438310385E-01 -1.451340292E-08
 -7.378941178E-01 -1.757346091E-08
 -7.319816351E-01 -2.250724229E-08
 -7.260929942E-01 -2.742487482E-08
 -7.202275991E-01 -3.549378391E-08
 -7.143849134E-01 -4.353397998E-08
 -7.085643411E-01 -5.488624666E-08
 -7.027654648E-01 -6.618085280E-08
 -6.969877481E-01 -6.985003154E-08
 -6.912305951E-01 -7.341733976E-08
 -6.854935884E-01 -1.556265161E-08
 -6.797762513E-01 4.236720130E-08
 -6.740779877E-01 3.173891798E-07
 -6.683985591E-01 5.920697390E-07
 -6.627373695E-01 1.372494921E-06
 -6.570940018E-01 2.151159606E-06
 -6.514679790E-01 3.700207571E-06
 -6.458590031E-01 5.244672593E-06
 -6.402664781E-01 7.316942629E-06
 -6.346902251E-01 9.381360542E-06
 -6.291297078E-01 1.060238992E-05
 -6.235845089E-01 1.181494190E-05
 -6.180542707E-01 9.486079762E-06
 -6.125387549E-01 7.154628747E-06
 -6.070374250E-01 -2.120952786E-06
 -6.015500426E-01 -1.138462903E-05
 -5.960762501E-01 -3.060969539E-05
 -5.906156301E-01 -4.980145604E-05
 -5.851678848E-01 -8.081140550E-05
 -5.797327161E-01 -1.117626816E-04
 -5.743098259E-01 -1.551237801E-04
 -5.688988566E-01 -1.984014525E-04
 -5.634995103E-01 -2.537411056E-04
 -5.581115484E-01 -3.089752863E-04
 -5.527345538E-01 -3.753886558E-04
 -5.473683476E-01 -4.416778684E-04
 -5.420126319E-01 -5.180319422E-04
 -5.366671085E-01 -5.942481221E-04
 -5.313314795E-01 -6.793638458E-04
 -5.260055661E-01 -7.643318968E-04
 -5.206890106E-01 -8.570803911E-04
 -5.153816342E-01 -9.496732382E-04
 -5.100831389E-01 -1.049016486E-03
 -5.047933459E-01 -1.148200245E-03
 -4.995119274E-01 -1.253203372E-03
 -4.942387640E-01 -1.358045614E-03
 -4.889734983E-01 -1.467878465E-03
 -4.837159812E-01 -1.577551360E-03
 -4.784659743E-01 -1.691479934E-03
 -4.732232988E-01 -1.805250300E-03
 -4.679876268E-01 -1.922626281E-03
 -4.627588689E-01 -2.039847896E-03
 -4.575367868E-01 -2.160098171E-03
 -4.523211718E-01 -2.280200133E-03
 -4.471118152E-01 -2.402818995E-03
 -4.419085085E-01 -2.525295131E-03
 -4.367111325E-01 -2.649833448E-03
 -4.315193892E-01 -2.774236491E-03
 -4.263331890E-01 -2.900295425E-03
 -4.211522639E-01 -3.026224440E-03
 -4.159765244E-01 -3.153448459E-03
 -4.108057320E-01 -3.280548844E-03
 -4.056397378E-01 -3.408616176E-03
 -4.004783630E-01 -3.536568256E-03
 -3.953213990E-01 -3.665194148E-03
 -3.901687860E-01 -3.793710377E-03
 -3.850202560E-01 -3.922632895E-03
 -3.798756897E-01 -4.051455297E-03
 -3.747349381E-01 -4.180438817E-03
 -3.695977926E-01 -4.309330601E-03
 -3.644641638E-01 -4.438161850E-03
 -3.593338430E-01 -4.566909280E-03
 -3.542067111E-01 -4.695392679E-03
 -3.490825891E-01 -4.823799711E-03
 -3.439613581E-01 -4.951754119E-03
 -3.388428390E-01 -5.079641007E-03
 -3.337269425E-01 -5.206901580E-03
 -3.286134899E-01 -5.334101152E-03
 -3.235023022E-01 -5.460515153E-03
 -3.183932900E-01 -5.586875137E-03
 -3.132863045E-01 -5.712299142E-03
 -3.081811965E-01 -5.837676115E-03
 -3.030778170E-01 -5.961978342E-03
 -2.979760170E-01 -6.086240523E-03
 -2.928757370E-01 -6.209295709E-03
 -2.877767384E-01 -6.332319696E-03
 -2.826789618E-01 -6.454011891E-03
 -2.775822580E-01 -6.575678010E-03
 -2.724864483E-01 -6.695897318E-03
 -2.673914433E-01 -6.816097535E-03
 -2.622970939E-01 -6.934739184E-03
 -2.572032809E-01 -7.053368725E-03
 -2.521098554E-01 -7.170337718E-03
 -2.470166981E-01 -7.287300192E-03
 -2.419236600E-01 -7.402506191E-03
 -2.368306369E-01 -7.517710794E-03
 -2.317416668E-01 -7.630966604E-03
 -2.266565561E-01 -7.744134869E-03
 -2.215751410E-01 -7.855262607E-03
 -2.164972872E-01 -7.966311648E-03
 -2.114228010E-01 -8.075246587E-03
 -2.063515782E-01 -8.184108883E-03
 -2.012834698E-01 -8.290783502E-03
 -1.962183416E-01 -8.397394791E-03
 -1.911560595E-01 -8.501745760E-03
 -1.860964894E-01 -8.606038988E-03
 -1.810395569E-01 -8.708001114E-03
 -1.759851128E-01 -8.809911087E-03
 -1.709330678E-01 -8.909422904E-03
 -1.658833027E-01 -9.008887224E-03
 -1.608357280E-01 -9.105888195E-03
 -1.557902396E-01 -9.202847257E-03
 -1.507467479E-01 -9.297276847E-03
 -1.457051635E-01 -9.391671978E-03
 -1.406653970E-01 -9.483474307E-03
 -1.356273592E-01 -9.575244971E-03
 -1.305909753E-01 -9.664366953E-03
 -1.255561709E-01 -9.753460065E-03
 -1.205228418E-01 -9.839843959E-03
 -1.154909506E-01 -9.926203638E-03
 -1.104603931E-01 -1.000979729E-02
 -1.054311171E-01 -1.009336952E-02
 -1.004030481E-01 -1.017412357E-02
 -9.537611157E-02 -1.025485713E-02
 -9.035026282E-02 -1.033271663E-02
 -8.532540500E-02 -1.041056216E-02
 -8.030150086E-02 -1.048547961E-02
 -7.527848333E-02 -1.056038495E-02
 -7.025628537E-02 -1.063231286E-02
 -6.523484737E-02 -1.070423052E-02
 -6.021411717E-02 -1.077312045E-02
 -5.519403145E-02 -1.084200293E-02
 -5.017453805E-02 -1.090781018E-02
 -4.515557736E-02 -1.097361185E-02
 -4.013709351E-02 -1.103629079E-02
 -3.511903808E-02 -1.109896507E-02
 -3.010134771E-02 -1.115847006E-02
 -2.508397400E-02 -1.121797413E-02
 -2.006686665E-02 -1.127426419E-02
 -1.504996605E-02 -1.133055333E-02
 -1.003322285E-02 -1.138358563E-02
 -5.016585812E-03 -1.143661700E-02
 8.255525305E-15 -1.148635149E-02
 5.016585812E-03 -1.153608505E-02
 1.003322285E-02 -1.158247888E-02
 1.504996605E-02 -1.162887365E-02
 2.006686665E-02 -1.167188864E-02
 2.508397400E-02 -1.171490736E-02
 3.010134771E-02 -1.175450534E-02
 3.511903808E-02 -1.179410797E-02
 4.013709351E-02 -1.183025073E-02
 4.515557736E-02 -1.186639909E-02
 5.017453805E-02 -1.189905219E-02
 5.519403145E-02 -1.193170901E-02
 6.021411717E-02 -1.196083706E-02
 6.523484737E-02 -1.198996883E-02
 7.025628537E-02 -1.201553550E-02
 7.527848333E-02 -1.204110589E-02
 8.030150086E-02 -1.206307858E-02
 8.532540500E-02 -1.208505500E-02
 9.035026282E-02 -1.210340019E-02
 9.537611157E-02 -1.212175004E-02
 1.004030481E-01 -1.213643886E-02
 1.054311171E-01 -1.215112954E-02
 1.104603931E-01 -1.216212846E-02
 1.154909506E-01 -1.217312925E-02
 1.205228418E-01 -1.218040939E-02
 1.255561709E-01 -1.218769234E-02
 1.305909753E-01 -1.219122764E-02
 1.356273592E-01 -1.219476014E-02
 1.406653970E-01 -1.219451893E-02
 1.457051635E-01 -1.219427865E-02
 1.507467479E-01 -1.219023578E-02
 1.557902396E-01 -1.218619104E-02
 1.608357280E-01 -1.217832323E-02
 1.658833027E-01 -1.217044890E-02
 1.709330678E-01 -1.215872914E-02
 1.759851128E-01 -1.214700192E-02
 1.810395569E-01 -1.213140599E-02
 1.860964894E-01 -1.211580168E-02
 1.911560595E-01 -1.209630724E-02
 1.962183416E-01 -1.207680255E-02
 2.012834698E-01 -1.205339003E-02
 2.063515782E-01 -1.202996075E-02
 2.114228010E-01 -1.200260688E-02
 2.164972872E-01 -1.197523251E-02
 2.215751410E-01 -1.194391027E-02
 2.266565561E-01 -1.191256475E-02
 2.317416668E-01 -1.187726762E-02
 2.368306369E-01 -1.184194256E-02
 2.419236600E-01 -1.180265844E-02
 2.470166981E-01 -1.176337246E-02
 2.521098554E-01 -1.172013767E-02
 2.572032809E-01 -1.167690288E-02
 2.622970939E-01 -1.162973046E-02
 2.673914433E-01 -1.158255432E-02
 2.724864483E-01 -1.153145265E-02
 2.775822580E-01 -1.148034260E-02
 2.826789618E-01 -1.142532099E-02
 2.877767384E-01 -1.137028635E-02
 2.928757370E-01 -1.131135412E-02
 2.979760170E-01 -1.125240698E-02
 3.030778170E-01 -1.118957624E-02
 3.081811965E-01 -1.112672780E-02
 3.132863045E-01 -1.106001623E-02
 3.183932900E-01 -1.099327952E-02
 3.235023022E-01 -1.092270575E-02
 3.286134899E-01 -1.085210126E-02
 3.337269425E-01 -1.077768579E-02
 3.388428390E-01 -1.070323400E-02
 3.439613581E-01 -1.062500011E-02
 3.490825891E-01 -1.054672524E-02
 3.542067111E-01 -1.046470366E-02
 3.593338430E-01 -1.038263272E-02
 3.644641638E-01 -1.029685605E-02
 3.695977926E-01 -1.021102350E-02
 3.747349381E-01 -1.012152806E-02
 3.798756897E-01 -1.003196929E-02
 3.850202560E-01 -9.938794188E-03
 3.901687860E-01 -9.845547378E-03
 3.953213990E-01 -9.748743847E-03
 4.004783630E-01 -9.651857428E-03
 4.056397378E-01 -9.551472962E-03
 4.108057320E-01 -9.450998157E-03
 4.159765244E-01 -9.347095154E-03
 4.211522639E-01 -9.243088774E-03
 4.263331890E-01 -9.135726839E-03
 4.315193892E-01 -9.028254077E-03
 4.367111325E-01 -8.917507716E-03
 4.419085085E-01 -8.806639351E-03
 4.471118152E-01 -8.692587726E-03
 4.523211718E-01 -8.578401990E-03
 4.575367868E-01 -8.461133577E-03
 4.627588689E-01 -8.343718015E-03
 4.679876268E-01 -8.223330602E-03
 4.732232988E-01 -8.102782071E-03
 4.784659743E-01 -7.979381830E-03
 4.837159812E-01 -7.855807431E-03
 4.889734983E-01 -7.729514036E-03
 4.942387640E-01 -7.603032514E-03
 4.995119274E-01 -7.473976351E-03
 5.047933459E-01 -7.344717160E-03
 5.100831389E-01 -7.213042118E-03
 5.153816342E-01 -7.081147749E-03
 5.206890106E-01 -6.947013084E-03
 5.260055661E-01 -6.812645122E-03
 5.313314795E-01 -6.676223595E-03
 5.366671085E-01 -6.539553870E-03
 5.420126319E-01 -6.401039660E-03
 5.473683476E-01 -6.262258627E-03
 5.527345538E-01 -6.121862680E-03
 5.581115484E-01 -5.981183611E-03
 5.634995103E-01 -5.839137826E-03
 5.688988566E-01 -5.696790759E-03
 5.743098259E-01 -5.553349853E-03
 5.797327161E-01 -5.409590434E-03
 5.851678848E-01 -5.265034735E-03
 5.906156301E-01 -5.120143294E-03
 5.960762501E-01 -4.974778742E-03
 6.015500426E-01 -4.829062149E-03
 6.070374250E-01 -4.683229141E-03
 6.125387549E-01 -4.537024535E-03
 6.180542707E-01 -4.391091876E-03
 6.235845089E-01 -4.244770855E-03
 6.291297078E-01 -4.099141341E-03
 6.346902251E-01 -3.953109495E-03
 6.402664781E-01 -3.808229696E-03
 6.458590031E-01 -3.662930103E-03
 6.514679790E-01 -3.519280581E-03
 6.570940018E-01 -3.375198226E-03
 6.627373695E-01 -3.233307973E-03
 6.683985591E-01 -3.090972314E-03
 6.740779877E-01 -2.951412927E-03
 6.797762513E-01 -2.811395330E-03
 6.854935884E-01 -2.674786607E-03
 6.912305951E-01 -2.537711523E-03
 6.969877481E-01 -2.404718660E-03
 7.027654648E-01 -2.271255245E-03
 7.085643411E-01 -2.142590005E-03
 7.143849134E-01 -2.013451420E-03
 7.202275991E-01 -1.889868407E-03
 7.260929942E-01 -1.765812049E-03
 7.319816351E-01 -1.648094621E-03
 7.378941178E-01 -1.529909438E-03
 7.438310385E-01 -1.418861910E-03
 7.497929931E-01 -1.307356171E-03
 7.557805181E-01 -1.203782274E-03
 7.617942095E-01 -1.099764952E-03
 7.678348422E-01 -1.004433841E-03
 7.739029527E-01 -9.086807258E-04
 7.799991369E-01 -8.222950273E-04
 7.861242294E-01 -7.355130510E-04
 7.922788858E-01 -6.586517557E-04
 7.984637618E-01 -5.814274773E-04
 8.046796322E-01 -5.144973984E-04
 8.109272718E-01 -4.472408618E-04
 8.172072768E-01 -3.904162731E-04
 8.235206008E-01 -3.333057975E-04
 8.298678994E-01 -2.864741837E-04
 8.362501264E-01 -2.394008770E-04
 8.426681161E-01 -2.021341497E-04
 8.491225839E-01 -1.646711171E-04
 8.556144238E-01 -1.362205803E-04
 8.621446490E-01 -1.076167900E-04
 8.687141538E-01 -8.694234566E-05
 8.753237128E-01 -6.615542952E-05
 8.819744587E-01 -5.199713632E-05
 8.886673450E-01 -3.776114318E-05
 8.954033256E-01 -2.874033817E-05
 9.021833539E-01 -1.967045864E-05
 9.090086222E-01 -1.441275799E-05
 9.158802032E-01 -9.127165868E-06
 9.227990508E-01 -6.387539088E-06
 9.297664762E-01 -3.634275572E-06
 9.367834330E-01 -2.399495088E-06
 9.438512921E-01 -1.159376552E-06
 9.509711862E-01 -7.030647566E-07
 9.581443071E-01 -2.453751904E-07
 9.653719664E-01 -1.217085668E-07
 9.726553559E-01 1.961844021E-09
 9.799959660E-01 1.771413061E-08
 9.873951077E-01 3.324862874E-08
 9.948540330E-01 2.781791331E-08
 1.002374411E+00 2.226431306E-08
 1.009957433E+00 1.744182576E-08
 1.017604709E+00 1.257779658E-08
 1.025317788E+00 9.729148154E-09
 1.033098102E+00 6.862862278E-09
 1.040947437E+00 4.841191892E-09
 1.048867345E+00 2.804307009E-09
 1.056859374E+00 1.407188699E-09
 1.064925432E+00 -1.286433958E-12
 1.073067069E+00 -7.039750449E-10
 1.081286311E+00 -1.411391781E-09
 1.089584827E+00 -1.572653452E-09
 1.097964406E+00 -1.733641564E-09
 1.106427193E+00 -1.626714319E-09
 1.114975095E+00 -1.517588166E-09
 1.123610020E+00 -1.347704615E-09
 1.132334113E+00 -1.175654241E-09
 1.141149521E+00 -1.031503771E-09
 1.150058270E+00 -8.858017098E-10
 1.159062624E+00 -7.818702352E-10
 1.168164849E+00 -6.768980376E-10
 1.177367330E+00 -6.024804544E-10
 1.186672330E+00 -5.273158576E-10
 1.196082354E+00 -4.712875090E-10
 1.205599904E+00 -4.146725741E-10
 1.215227365E+00 -3.711185526E-10
 1.224967599E+00 -3.270918536E-10
 1.234822989E+00 -2.935774401E-10
 1.244796395E+00 -2.596944326E-10
 1.254890561E+00 -2.349148931E-10
 1.265108466E+00 -2.098629326E-10
 1.275452852E+00 -1.925167803E-10
 1.285926819E+00 -1.749827089E-10
 1.296533465E+00 -1.636024788E-10
 1.307275772E+00 -1.521022197E-10
 1.318157077E+00 -1.452267057E-10
 1.329180717E+00 -1.382817055E-10
 1.340349913E+00 -1.346261991E-10
 1.351668119E+00 -1.309372749E-10
 1.363138914E+00 -1.294676866E-10
 1.374765873E+00 -1.279890222E-10
 1.386552572E+00 -1.279233663E-10
 1.398503065E+00 -1.278641082E-10
 1.410620928E+00 -1.286410561E-10
 1.422910333E+00 -1.294335611E-10
 1.435375333E+00 -1.306721537E-10
 1.448019862E+00 -1.319311604E-10
 1.460848331E+00 -1.333894384E-10
 1.473865032E+00 -1.348703649E-10
 1.487074256E+00 -1.364057062E-10
 1.500481009E+00 -1.379643899E-10
 1.514089465E+00 -1.394983434E-10
 1.527904630E+00 -1.410555284E-10
 1.541931272E+00 -1.425465718E-10
 1.556174636E+00 -1.440602915E-10
 1.570639491E+00 -1.454860538E-10
 1.585331202E+00 -1.469336597E-10
 1.600255251E+00 -1.482815953E-10
 1.615417004E+00 -1.496503754E-10
 1.630822182E+00 -1.509140174E-10
 1.646476269E+00 -1.521973936E-10
 1.662385464E+00 -1.533748822E-10
 1.678555489E+00 -1.545709810E-10
 1.694992781E+00 -1.556638846E-10
 1.711703539E+00 -1.567742464E-10
 1.728694201E+00 -1.577859648E-10
 1.745971322E+00 -1.588140314E-10
 1.763541818E+00 -1.597484089E-10
 1.781412363E+00 -1.606980382E-10
 1.799590468E+00 -1.615586137E-10
 1.818082929E+00 -1.624333862E-10
 1.836897492E+00 -1.632232127E-10
 1.856041551E+00 -1.640262509E-10
 1.875522971E+00 -1.647483400E-10
 1.895349860E+00 -1.654825721E-10
 1.915530086E+00 -1.661398935E-10
 1.936072350E+00 -1.668083865E-10
 1.956984758E+00 -1.674039102E-10
 1.978276372E+00 -1.680096617E-10
 1.999956131E+00 -1.685462742E-10
 2.022032976E+00 -1.690921708E-10
 2.044516563E+00 -1.695725227E-10
 2.067416430E+00 -1.700612151E-10
 2.090742111E+00 -1.704877767E-10
 2.114504099E+00 -1.709217490E-10
 2.138712406E+00 -1.712967268E-10
 2.163377523E+00 -1.716782827E-10
 2.188510418E+00 -1.720038001E-10
 2.214122057E+00 -1.723350351E-10
 2.240223885E+00 -1.726129795E-10
 2.266827345E+00 -1.728957949E-10
 2.293944120E+00 -1.731278454E-10
 2.321586609E+00 -1.733639343E-10
 2.349766970E+00 -1.735515065E-10
 2.378498316E+00 -1.737422983E-10
 2.407793045E+00 -1.738865857E-10
 2.437664986E+00 -1.740332878E-10
 2.468127728E+00 -1.741352756E-10
 2.499194860E+00 -1.742388317E-10
 2.530880928E+00 -1.742991723E-10
 2.563199997E+00 -1.743602901E-10
 2.596168041E+00 -1.743794137E-10
 2.629799843E+00 -1.743984956E-10
 2.664110661E+00 -1.743765549E-10
 2.699117184E+00 -1.743537675E-10
 2.734835386E+00 -1.742906236E-10
 2.771282434E+00 -1.742257727E-10
 2.808475256E+00 -1.741209954E-10
 2.846431494E+00 -1.740136785E-10
 2.885169268E+00 -1.738665739E-10
 2.924707174E+00 -1.737160138E-10
 2.965063572E+00 -1.735255134E-10
 3.006258488E+00 -1.733306415E-10
 3.048310995E+00 -1.730954269E-10
 3.091241837E+00 -1.728548832E-10
 3.135071754E+00 -1.725732612E-10
 3.179821730E+00 -1.722852971E-10
 3.225513458E+00 -1.719552556E-10
 3.272169590E+00 -1.716177894E-10
 3.319812059E+00 -1.712369968E-10
 3.368465185E+00 -1.708476555E-10
 3.418152094E+00 -1.704133501E-10
 3.468897581E+00 -1.699693025E-10
 3.520726442E+00 -1.694784174E-10
 3.573664188E+00 -1.689765272E-10
 3.627737284E+00 -1.684255790E-10
 3.682971954E+00 -1.678622658E-10
 3.739396572E+00 -1.672473687E-10
 3.797038555E+00 -1.666186356E-10
 3.855926514E+00 -1.659354598E-10
 3.916090250E+00 -1.652369214E-10
 3.977559328E+00 -1.644807762E-10
 4.040365696E+00 -1.637075475E-10
 4.104539871E+00 -1.628732149E-10
 4.170114040E+00 -1.620200085E-10
 4.237122059E+00 -1.611018402E-10
 4.305597782E+00 -1.601628413E-10
 4.375575066E+00 -1.591547172E-10
 4.447089672E+00 -1.581236669E-10
 4.520178318E+00 -1.570189256E-10
 4.594877720E+00 -1.558890100E-10
 4.671226025E+00 -1.546805323E-10
 4.749261856E+00 -1.534444516E-10
 4.829025745E+00 -1.521245768E-10
 4.910557747E+00 -1.507744901E-10
 4.993899822E+00 -1.493350721E-10
 5.079095364E+00 -1.478626249E-10
 5.166187763E+00 -1.462949206E-10
 5.255220890E+00 -1.446912173E-10
 5.346241474E+00 -1.429860813E-10
 5.439296246E+00 -1.412416850E-10
 5.534433365E+00 -1.393894028E-10
 5.631701946E+00 -1.374943909E-10
 5.731152534E+00 -1.354848039E-10
 5.832835674E+00 -1.334287819E-10
 5.936804771E+00 -1.312512876E-10
 6.043114185E+00 -1.290233753E-10
 6.151818275E+00 -1.266669547E-10
 6.262974262E+00 -1.242558834E-10
 6.376639843E+00 -1.217091983E-10
 6.492874146E+00 -1.191034077E-10
 6.611737728E+00 -1.163548355E-10
 6.733292580E+00 -1.135423977E-10
 6.857603073E+00 -1.105802117E-10
 6.984733105E+00 -1.075490946E-10
 7.114749908E+00 -1.043614153E-10
 7.247721672E+00 -1.010994830E-10
 7.383717537E+00 -9.767471554E-11
 7.522809505E+00 -9.417009533E-11
 7.665070534E+00 -9.049658245E-11
 7.810575485E+00 -8.673734647E-11
 7.959400654E+00 -8.280420100E-11
 8.111624718E+00 -7.877926089E-11
 8.267328262E+00 -7.455877582E-11
 8.426591873E+00 -7.023952947E-11
 8.589501381E+00 -6.571487104E-11
 8.756142616E+00 -6.108423489E-11
 8.926602364E+00 -5.644624004E-11
 9.100972176E+00 -5.170174358E-11
 9.279343605E+00 -4.768986595E-11
 9.461811066E+00 -4.359461056E-11
 9.648471832E+00 -3.416739461E-11
 9.839425087E+00 -2.446127155E-11
 1.003477097E+01 -2.250454684E-11
 1.023461342E+01 -2.059386689E-11
 1.043905926E+01 -1.866761259E-11
 1.064821720E+01 -1.669596059E-11
ZONE T="x = 650 mm"
 -4.091066837E+00 4.782519866E-12
 -4.041907787E+00 5.431822093E-12
 -3.993742228E+00 6.032133560E-12
 -3.946547508E+00 3.074185654E-12
 -3.900302410E+00 1.920588797E-13
 -3.854984283E+00 -1.031706296E-12
 -3.810571671E+00 -2.218160334E-12
 -3.767044067E+00 -2.005683163E-12
 -3.724380732E+00 -1.794600493E-12
 -3.682561636E+00 -1.234141045E-12
 -3.641567469E+00 -6.865168698E-13
 -3.601379395E+00 -3.280813934E-13
 -3.561978579E+00 2.128961070E-14
 -3.523347139E+00 1.206284828E-13
 -3.485466957E+00 2.170463787E-13
 -3.448320866E+00 1.771656687E-13
 -3.411892176E+00 1.379042280E-13
 -3.376163960E+00 6.888521193E-14
 -3.341120243E+00 1.368112476E-15
 -3.306745291E+00 -4.563815553E-14
 -3.273023367E+00 -9.155644179E-14
 -3.239939928E+00 -1.090222544E-13
 -3.207479715E+00 -1.260497511E-13
 -3.175628901E+00 -1.242743294E-13
 -3.144373178E+00 -1.224984469E-13
 -3.113698721E+00 -1.132210645E-13
 -3.083591938E+00 -1.041198784E-13
 -3.054040194E+00 -9.462108831E-14
 -3.025030375E+00 -8.531107813E-14
 -2.996550560E+00 -7.838802713E-14
 -2.968587637E+00 -7.160255461E-14
 -2.941130161E+00 -6.740287717E-14
 -2.914166451E+00 -6.328523995E-14
 -2.887685061E+00 -6.097166093E-14
 -2.861674786E+00 -5.870195145E-14
 -2.836125135E+00 -5.739407159E-14
 -2.811025143E+00 -5.611017971E-14
 -2.786364317E+00 -5.522244513E-14
 -2.762133121E+00 -5.435078724E-14
 -2.738320827E+00 -5.360277245E-14
 -2.714918613E+00 -5.286852024E-14
 -2.691916466E+00 -5.218203392E-14
 -2.669305325E+00 -5.150848349E-14
 -2.647075891E+00 -5.090241786E-14
 -2.625220060E+00 -5.030808533E-14
 -2.603728533E+00 -4.982939313E-14
 -2.582592964E+00 -4.936037066E-14
 -2.561805725E+00 -4.905034644E-14
 -2.541357994E+00 -4.874722723E-14
 -2.521242619E+00 -4.863150220E-14
 -2.501451731E+00 -4.851954816E-14
 -2.481977701E+00 -4.860981477E-14
 -2.462813139E+00 -4.870059298E-14
 -2.443951130E+00 -4.899915516E-14
 -2.425384521E+00 -4.929502376E-14
 -2.407106876E+00 -4.979945899E-14
 -2.389111042E+00 -5.029814794E-14
 -2.371390820E+00 -5.100513585E-14
 -2.353939772E+00 -5.170345692E-14
 -2.336751938E+00 -5.260997530E-14
 -2.319820881E+00 -5.350505195E-14
 -2.303140402E+00 -5.460882736E-14
 -2.286705256E+00 -5.569850814E-14
 -2.270509958E+00 -5.699862918E-14
 -2.254548550E+00 -5.828212126E-14
 -2.238815546E+00 -5.977866585E-14
 -2.223306179E+00 -6.125608105E-14
 -2.208014965E+00 -6.294922537E-14
 -2.192936659E+00 -6.462094315E-14
 -2.178066730E+00 -6.651179851E-14
 -2.163400173E+00 -6.837897083E-14
 -2.148932457E+00 -7.046894670E-14
 -2.134658813E+00 -7.253303047E-14
 -2.120574951E+00 -7.482382091E-14
 -2.106676340E+00 -7.708662539E-14
 -2.092958927E+00 -7.958040558E-14
 -2.079418182E+00 -8.204416015E-14
 -2.066050291E+00 -8.474307139E-14
 -2.052850962E+00 -8.741000545E-14
 -2.039816856E+00 -9.031679891E-14
 -2.026943684E+00 -9.318973815E-14
 -2.014228106E+00 -9.630722597E-14
 -2.001666307E+00 -9.938908420E-14
 -1.989254475E+00 -1.027209120E-13
 -1.976989388E+00 -1.060153416E-13
 -1.964867711E+00 -1.095652432E-13
 -1.952886105E+00 -1.130760999E-13
 -1.941041350E+00 -1.168481002E-13
 -1.929330230E+00 -1.205794769E-13
 -1.917749763E+00 -1.245786785E-13
 -1.906296968E+00 -1.285356777E-13
 -1.894968510E+00 -1.327672103E-13
 -1.883762002E+00 -1.369550496E-13
 -1.872674346E+00 -1.414244156E-13
 -1.861703038E+00 -1.458487871E-13
 -1.850845098E+00 -1.505621664E-13
 -1.840098143E+00 -1.552291959E-13
 -1.829459667E+00 -1.601933511E-13
 -1.818926811E+00 -1.651099640E-13
 -1.808497429E+00 -1.703322813E-13
 -1.798169017E+00 -1.755057552E-13
 -1.787939548E+00 -1.809940679E-13
 -1.777806282E+00 -1.864323447E-13
 -1.767767310E+00 -1.921951097E-13
 -1.757820249E+00 -1.979067138E-13
 -1.747963190E+00 -2.039533635E-13
 -1.738193870E+00 -2.099477276E-13
 -1.728510380E+00 -2.162878980E-13
 -1.718910694E+00 -2.225746849E-13
 -1.709393024E+00 -2.292184996E-13
 -1.699955225E+00 -2.358080094E-13
 -1.690595627E+00 -2.427672050E-13
 -1.681312323E+00 -2.496711063E-13
 -1.672103643E+00 -2.569578664E-13
 -1.662967920E+00 -2.641883294E-13
 -1.653903246E+00 -2.718154206E-13
 -1.644908190E+00 -2.793853473E-13
 -1.635981083E+00 -2.873664306E-13
 -1.627120376E+00 -2.952894548E-13
 -1.618324518E+00 -3.036395462E-13
 -1.609591961E+00 -3.119308197E-13
 -1.600921273E+00 -3.206657487E-13
 -1.592311025E+00 -3.293409653E-13
 -1.583759904E+00 -3.384775912E-13
 -1.575266480E+00 -3.475537187E-13