# Normalized u'v' vs y from CFL3D, EASMko2003-S model
# U1=22.40 m/s, deltaU=19.14 m/s
# deltaw=13.771 mm at x=200
#       =35.894 mm at x=650
#       =50.547 mm at x=950
VARIABLES = "u'v'/deltaU**2","y/deltaw"
ZONE T="x = 200 mm"
 7.564172379E-12 -1.064821720E+01
 6.638563397E-12 -1.043905926E+01
 5.717416558E-12 -1.023461342E+01
 3.463791537E-12 -1.003477097E+01
 1.323078149E-12 -9.839425087E+00
 4.648923607E-12 -9.648471832E+00
 7.872840400E-12 -9.461811066E+00
 8.744487773E-12 -9.279343605E+00
 9.593153528E-12 -9.100972176E+00
 1.016538329E-11 -8.926602364E+00
 1.072563392E-11 -8.756142616E+00
 1.139268627E-11 -8.589501381E+00
 1.204382254E-11 -8.426591873E+00
 1.263725669E-11 -8.267328262E+00
 1.321586503E-11 -8.111624718E+00
 1.368182130E-11 -7.959400654E+00
 1.413595803E-11 -7.810575485E+00
 1.448741994E-11 -7.665070534E+00
 1.482976068E-11 -7.522809505E+00
 1.507881146E-11 -7.383717537E+00
 1.532111243E-11 -7.247721672E+00
 1.547500843E-11 -7.114749908E+00
 1.562435424E-11 -6.984733105E+00
 1.568961280E-11 -6.857603073E+00
 1.575237510E-11 -6.733292580E+00
 1.573598543E-11 -6.611737728E+00
 1.571899381E-11 -6.492874146E+00
 1.562812206E-11 -6.376639843E+00
 1.553837441E-11 -6.262974262E+00
 1.538009997E-11 -6.151818275E+00
 1.522451262E-11 -6.043114185E+00
 1.500569460E-11 -5.936804771E+00
 1.479096880E-11 -5.832835674E+00
 1.451817659E-11 -5.731152534E+00
 1.425072300E-11 -5.631701946E+00
 1.393016692E-11 -5.534433365E+00
 1.361605013E-11 -5.439296246E+00
 1.325353716E-11 -5.346241474E+00
 1.289842799E-11 -5.255220890E+00
 1.249933490E-11 -5.166187763E+00
 1.210848088E-11 -5.079095364E+00
 1.167773430E-11 -4.993899822E+00
 1.125595190E-11 -4.910557747E+00
 1.079802480E-11 -4.829025745E+00
 1.034967511E-11 -4.749261856E+00
 9.868597259E-12 -4.671226025E+00
 9.397608559E-12 -4.594877720E+00
 8.896956089E-12 -4.520178318E+00
 8.406822981E-12 -4.447089672E+00
 7.889744413E-12 -4.375575066E+00
 7.383541695E-12 -4.305597782E+00
 6.852767485E-12 -4.237122059E+00
 6.333154921E-12 -4.170114040E+00
 5.791018706E-12 -4.104539871E+00
 5.260272686E-12 -4.040365696E+00
 4.708725163E-12 -3.977559328E+00
 4.168751282E-12 -3.916090250E+00
 3.609391865E-12 -3.855926514E+00
 3.061742049E-12 -3.797038555E+00
 2.495827546E-12 -3.739396572E+00
 1.941725426E-12 -3.682971954E+00
 1.370193455E-12 -3.627737284E+00
 8.105537725E-13 -3.573664188E+00
 2.340406785E-13 -3.520726442E+00
 -3.305223933E-13 -3.468897581E+00
 -9.116689608E-13 -3.418152094E+00
 -1.480814169E-12 -3.368465185E+00
 -2.066513193E-12 -3.319812059E+00
 -2.640167815E-12 -3.272169590E+00
 -3.230588323E-12 -3.225513458E+00
 -3.808925831E-12 -3.179821730E+00
 -4.404476350E-12 -3.135071754E+00
 -4.987908957E-12 -3.091241837E+00
 -5.589230034E-12 -3.048310995E+00
 -6.178384627E-12 -3.006258488E+00
 -6.786338852E-12 -2.965063572E+00
 -7.382065445E-12 -2.924707174E+00
 -7.997717939E-12 -2.885169268E+00
 -8.601072111E-12 -2.846431494E+00
 -9.225693993E-12 -2.808475256E+00
 -9.837929082E-12 -2.771282434E+00
 -1.047299400E-11 -2.734835386E+00
 -1.109554722E-11 -2.699117184E+00
 -1.174271531E-11 -2.664110661E+00
 -1.237722945E-11 -2.629799843E+00
 -1.303835252E-11 -2.596168041E+00
 -1.368665424E-11 -2.563199997E+00
 -1.436375151E-11 -2.530880928E+00
 -1.502782968E-11 -2.499194860E+00
 -1.572312940E-11 -2.468127728E+00
 -1.640517236E-11 -2.437664986E+00
 -1.712106845E-11 -2.407793045E+00
 -1.782342676E-11 -2.378498316E+00
 -1.856248662E-11 -2.349766970E+00
 -1.928769297E-11 -2.321586609E+00
 -2.005266786E-11 -2.293944120E+00
 -2.080343536E-11 -2.266827345E+00
 -2.159723789E-11 -2.240223885E+00
 -2.237644098E-11 -2.214122057E+00
 -2.320215547E-11 -2.188510418E+00
 -2.401283165E-11 -2.163377523E+00
 -2.487372287E-11 -2.138712406E+00
 -2.571908311E-11 -2.114504099E+00
 -2.661857193E-11 -2.090742111E+00
 -2.750199547E-11 -2.067416430E+00
 -2.844364848E-11 -2.044516563E+00
 -2.936865681E-11 -2.022032976E+00
 -3.035621407E-11 -1.999956131E+00
 -3.132650389E-11 -1.978276372E+00
 -3.236384424E-11 -1.956984758E+00
 -3.338324409E-11 -1.936072350E+00
 -3.447439903E-11 -1.915530086E+00
 -3.554689529E-11 -1.895349860E+00
 -3.669603163E-11 -1.875522971E+00
 -3.782573560E-11 -1.856041551E+00
 -3.903714851E-11 -1.836897492E+00
 -4.022832761E-11 -1.818082929E+00
 -4.150644412E-11 -1.799590468E+00
 -4.276345944E-11 -1.781412363E+00
 -4.411282450E-11 -1.763541818E+00
 -4.544018287E-11 -1.745971322E+00
 -4.686546984E-11 -1.728694201E+00
 -4.826779254E-11 -1.711703539E+00
 -4.977376497E-11 -1.694992781E+00
 -5.125579822E-11 -1.678555489E+00
 -5.284730986E-11 -1.662385464E+00
 -5.441388659E-11 -1.646476269E+00
 -5.609595080E-11 -1.630822182E+00
 -5.775201151E-11 -1.615417004E+00
 -5.952970755E-11 -1.600255251E+00
 -6.128028640E-11 -1.585331202E+00
 -6.315879070E-11 -1.570639491E+00
 -6.500906063E-11 -1.556174636E+00
 -6.699366062E-11 -1.541931272E+00
 -6.894886051E-11 -1.527904630E+00
 -7.104490607E-11 -1.514089465E+00
 -7.311038580E-11 -1.500481009E+00
 -7.532337948E-11 -1.487074256E+00
 -7.750459996E-11 -1.473865032E+00
 -7.984007899E-11 -1.460848331E+00
 -8.214260522E-11 -1.448019862E+00
 -8.460628032E-11 -1.435375333E+00
 -8.703580218E-11 -1.422910333E+00
 -8.963346732E-11 -1.410620928E+00
 -9.219573022E-11 -1.398503065E+00
 -9.493332509E-11 -1.386552572E+00
 -9.763426179E-11 -1.374765873E+00
 -1.005178163E-10 -1.363138914E+00
 -1.033635053E-10 -1.351668119E+00
 -1.063992575E-10 -1.340349913E+00
 -1.093958812E-10 -1.329180717E+00
 -1.125903121E-10 -1.318157077E+00
 -1.157443724E-10 -1.307275772E+00
 -1.191041848E-10 -1.296533465E+00
 -1.224224333E-10 -1.285926819E+00
 -1.259549132E-10 -1.275452852E+00
 -1.294445523E-10 -1.265108466E+00
 -1.331575822E-10 -1.254890561E+00
 -1.368264668E-10 -1.244796395E+00
 -1.407290950E-10 -1.234822989E+00
 -1.445864123E-10 -1.224967599E+00
 -1.486896717E-10 -1.215227365E+00
 -1.527463434E-10 -1.205599904E+00
 -1.570647779E-10 -1.196082354E+00
 -1.613353756E-10 -1.186672330E+00
 -1.658898574E-10 -1.177367330E+00
 -1.703952118E-10 -1.168164849E+00
 -1.752175488E-10 -1.159062624E+00
 -1.799892180E-10 -1.150058270E+00
 -1.851301334E-10 -1.141149521E+00
 -1.902186048E-10 -1.132334113E+00
 -1.957608103E-10 -1.123610020E+00
 -2.012482681E-10 -1.114975095E+00
 -2.073280991E-10 -1.106427193E+00
 -2.133500876E-10 -1.097964406E+00
 -2.201935301E-10 -1.089584827E+00
 -2.269744948E-10 -1.081286311E+00
 -2.349553885E-10 -1.073067069E+00
 -2.428668655E-10 -1.064925432E+00
 -2.526034659E-10 -1.056859374E+00
 -2.622595752E-10 -1.048867345E+00
 -2.747707339E-10 -1.040947437E+00
 -2.871842208E-10 -1.033098102E+00
 -3.041442376E-10 -1.025317788E+00
 -3.209787436E-10 -1.017604709E+00
 -3.451296193E-10 -1.009957433E+00
 -3.691104922E-10 -1.002374411E+00
 -4.049279800E-10 -9.948540330E-01
 -4.405052156E-10 -9.873951077E-01
 -4.952742660E-10 -9.799959660E-01
 -5.496914590E-10 -9.726553559E-01
 -6.352445237E-10 -9.653719664E-01
 -7.202696772E-10 -9.581443071E-01
 -8.558465048E-10 -9.509711862E-01
 -9.906176990E-10 -9.438512921E-01
 -1.207700384E-09 -9.367834330E-01
 -1.423536511E-09 -9.297664762E-01
 -1.774146829E-09 -9.227990508E-01
 -2.122811482E-09 -9.158802032E-01
 -2.692848833E-09 -9.090086222E-01
 -3.259823744E-09 -9.021833539E-01
 -4.188387859E-09 -8.954033256E-01
 -5.112153811E-09 -8.886673450E-01
 -6.630051619E-09 -8.819744587E-01
 -8.140640162E-09 -8.753237128E-01
 -1.071984990E-08 -8.687141538E-01
 -1.328823895E-08 -8.621446490E-01
 -1.812023953E-08 -8.556144238E-01
 -2.293214507E-08 -8.491225839E-01
 -3.201597565E-08 -8.426681161E-01
 -4.103872442E-08 -8.362501264E-01
 -4.856939029E-08 -8.298678994E-01
 -5.589645014E-08 -8.235206008E-01
 2.340416305E-09 -8.172072768E-01
 6.101751637E-08 -8.109272718E-01
 4.577150037E-07 -8.046796322E-01
 8.545300147E-07 -7.984637618E-01
 2.277912245E-06 -7.922788858E-01
 3.698427463E-06 -7.861242294E-01
 7.189451026E-06 -7.799991369E-01
 1.066973618E-05 -7.739029527E-01
 1.714587052E-05 -7.678348422E-01
 2.359929385E-05 -7.617942095E-01
 3.354137152E-05 -7.557805181E-01
 4.344659465E-05 -7.497929931E-01
 5.687970770E-05 -7.438310385E-01
 7.026173262E-05 -7.378941178E-01
 8.666933718E-05 -7.319816351E-01
 1.030131971E-04 -7.260929942E-01
 1.211665804E-04 -7.202275991E-01
 1.392475970E-04 -7.143849134E-01
 1.570891764E-04 -7.085643411E-01
 1.748574723E-04 -7.027654648E-01
 1.898582268E-04 -6.969877481E-01
 2.047950693E-04 -6.912305951E-01
 2.149412903E-04 -6.854935884E-01
 2.250416146E-04 -6.797762513E-01
 2.295754239E-04 -6.740779877E-01
 2.340845967E-04 -6.683985591E-01
 2.332767326E-04 -6.627373695E-01
 2.324636589E-04 -6.570940018E-01
 2.269463876E-04 -6.514679790E-01
 2.214396518E-04 -6.458590031E-01
 2.118043922E-04 -6.402664781E-01
 2.021921973E-04 -6.346902251E-01
 1.888993866E-04 -6.291297078E-01
 1.756394195E-04 -6.235845089E-01
 1.590391912E-04 -6.180542707E-01
 1.424798102E-04 -6.125387549E-01
 1.228413312E-04 -6.070374250E-01
 1.032501459E-04 -6.015500426E-01
 8.078219253E-05 -5.960762501E-01
 5.836630589E-05 -5.906156301E-01
 3.322990960E-05 -5.851678848E-01
 8.149809219E-06 -5.797327161E-01
 -1.953248466E-05 -5.743098259E-01
 -4.715537580E-05 -5.688988566E-01
 -7.729305071E-05 -5.634995103E-01
 -1.073688763E-04 -5.581115484E-01
 -1.398995955E-04 -5.527345538E-01
 -1.723663154E-04 -5.473683476E-01
 -2.072525967E-04 -5.420126319E-01
 -2.420735400E-04 -5.366671085E-01
 -2.793004387E-04 -5.313314795E-01
 -3.164610243E-04 -5.260055661E-01
 -3.560356272E-04 -5.206890106E-01
 -3.955427092E-04 -5.153816342E-01
 -4.374930868E-04 -5.100831389E-01
 -4.793753324E-04 -5.047933459E-01
 -5.237496225E-04 -4.995119274E-01
 -5.680556642E-04 -4.942387640E-01
 -6.149239489E-04 -4.889734983E-01
 -6.617238396E-04 -4.837159812E-01
 -7.111777668E-04 -4.784659743E-01
 -7.605632418E-04 -4.732232988E-01
 -8.127167821E-04 -4.679876268E-01
 -8.648022194E-04 -4.627588689E-01
 -9.197930922E-04 -4.575367868E-01
 -9.747166769E-04 -4.523211718E-01
 -1.032707631E-03 -4.471118152E-01
 -1.090632170E-03 -4.419085085E-01
 -1.151811914E-03 -4.367111325E-01
 -1.212926232E-03 -4.315193892E-01
 -1.277509960E-03 -4.263331890E-01
 -1.342028496E-03 -4.211522639E-01
 -1.410257421E-03 -4.159765244E-01
 -1.478421851E-03 -4.108057320E-01
 -1.550559420E-03 -4.056397378E-01
 -1.622633543E-03 -4.004783630E-01
 -1.698962296E-03 -3.953213990E-01
 -1.775227953E-03 -3.901687860E-01
 -1.856035204E-03 -3.850202560E-01
 -1.936781337E-03 -3.798756897E-01
 -2.022343688E-03 -3.747349381E-01
 -2.107847016E-03 -3.695977926E-01
 -2.198409988E-03 -3.644641638E-01
 -2.288915217E-03 -3.593338430E-01
 -2.384663094E-03 -3.542067111E-01
 -2.480355790E-03 -3.490825891E-01
 -2.581385663E-03 -3.439613581E-01
 -2.682363382E-03 -3.388428390E-01
 -2.788655693E-03 -3.337269425E-01
 -2.894897480E-03 -3.286134899E-01
 -3.006270155E-03 -3.235023022E-01
 -3.117596498E-03 -3.183932900E-01
 -3.233653959E-03 -3.132863045E-01
 -3.349669743E-03 -3.081811965E-01
 -3.469757503E-03 -3.030778170E-01
 -3.589808242E-03 -2.979760170E-01
 -3.713006154E-03 -2.928757370E-01
 -3.836171702E-03 -2.877767384E-01
 -3.961360548E-03 -2.826789618E-01
 -4.086522385E-03 -2.775822580E-01
 -4.212510772E-03 -2.724864483E-01
 -4.338480067E-03 -2.673914433E-01
 -4.464154132E-03 -2.622970939E-01
 -4.589814693E-03 -2.572032809E-01
 -4.714245908E-03 -2.521098554E-01
 -4.838671070E-03 -2.470166981E-01
 -4.961161874E-03 -2.419236600E-01
 -5.083651282E-03 -2.368306369E-01
 -5.203626584E-03 -2.317416668E-01
 -5.323507823E-03 -2.266565561E-01
 -5.440580193E-03 -2.215751410E-01
 -5.557568744E-03 -2.164972872E-01
 -5.671565421E-03 -2.114228010E-01
 -5.785486195E-03 -2.063515782E-01
 -5.896299612E-03 -2.012834698E-01
 -6.007045507E-03 -1.962183416E-01
 -6.114607211E-03 -1.911560595E-01
 -6.222109310E-03 -1.860964894E-01
 -6.326360162E-03 -1.810395569E-01
 -6.430558860E-03 -1.759851128E-01
 -6.531440187E-03 -1.709330678E-01
 -6.632274948E-03 -1.658833027E-01
 -6.729719695E-03 -1.608357280E-01
 -6.827122997E-03 -1.557902396E-01
 -6.921056658E-03 -1.507467479E-01
 -7.014953997E-03 -1.457051635E-01
 -7.105294149E-03 -1.406653970E-01
 -7.195602171E-03 -1.356273592E-01
 -7.282259874E-03 -1.305909753E-01
 -7.368889637E-03 -1.255561709E-01
 -7.451772224E-03 -1.205228418E-01
 -7.534631062E-03 -1.154909506E-01
 -7.613645401E-03 -1.104603931E-01
 -7.692637853E-03 -1.054311171E-01
 -7.767688483E-03 -1.004030481E-01
 -7.842721418E-03 -9.537611157E-02
 -7.913716137E-03 -9.035026282E-02
 -7.984696887E-03 -8.532540500E-02
 -8.051548153E-03 -8.030150086E-02
 -8.118388243E-03 -7.527848333E-02
 -8.181012236E-03 -7.025628537E-02
 -8.243625984E-03 -6.523484737E-02
 -8.301946335E-03 -6.021411717E-02
 -8.360259235E-03 -5.519403145E-02
 -8.414208889E-03 -5.017453805E-02
 -8.468152955E-03 -4.515557736E-02
 -8.517674170E-03 -4.013709351E-02
 -8.567191660E-03 -3.511903808E-02
 -8.612235077E-03 -3.010134771E-02
 -8.657276630E-03 -2.508397400E-02
 -8.697804064E-03 -2.006686665E-02
 -8.738329634E-03 -1.504996605E-02
 -8.774314076E-03 -1.003322285E-02
 -8.810296655E-03 -5.016585812E-03
 -8.841720410E-03 8.255525305E-15
 -8.873143233E-03 5.016585812E-03
 -8.900000714E-03 1.003322285E-02
 -8.926859125E-03 1.504996605E-02
 -8.949158713E-03 2.006686665E-02
 -8.971458301E-03 2.508397400E-02
 -8.989216760E-03 3.010134771E-02
 -9.006976150E-03 3.511903808E-02
 -9.020223282E-03 4.013709351E-02
 -9.033472277E-03 4.515557736E-02
 -9.042248130E-03 5.017453805E-02
 -9.051025845E-03 5.519403145E-02
 -9.055383503E-03 6.021411717E-02
 -9.059741162E-03 6.523484737E-02
 -9.059741162E-03 7.025628537E-02
 -9.059741162E-03 7.527848333E-02
 -9.055455215E-03 8.030150086E-02
 -9.051168337E-03 8.532540500E-02
 -9.042677470E-03 9.035026282E-02
 -9.034184739E-03 9.537611157E-02
 -9.021577425E-03 1.004030481E-01
 -9.008966386E-03 1.054311171E-01
 -8.992340416E-03 1.104603931E-01
 -8.975709789E-03 1.154909506E-01
 -8.955169469E-03 1.205228418E-01
 -8.934623562E-03 1.255561709E-01
 -8.910280652E-03 1.305909753E-01
 -8.885929361E-03 1.356273592E-01
 -8.857901208E-03 1.406653970E-01
 -8.829862811E-03 1.457051635E-01
 -8.798272349E-03 1.507467479E-01
 -8.766669780E-03 1.557902396E-01
 -8.731645532E-03 1.608357280E-01
 -8.696605451E-03 1.658833027E-01
 -8.658278733E-03 1.709330678E-01
 -8.619935252E-03 1.759851128E-01
 -8.578442968E-03 1.810395569E-01
 -8.536930196E-03 1.860964894E-01
 -8.492412046E-03 1.911560595E-01
 -8.447869681E-03 1.962183416E-01
 -8.400468156E-03 2.012834698E-01
 -8.353038691E-03 2.063515782E-01
 -8.302899078E-03 2.114228010E-01
 -8.252725936E-03 2.164972872E-01
 -8.199998178E-03 2.215751410E-01
 -8.147231303E-03 2.266565561E-01
 -8.092069067E-03 2.317416668E-01
 -8.036863990E-03 2.368306369E-01
 -7.979403250E-03 2.419236600E-01
 -7.921942510E-03 2.470166981E-01
 -7.862430997E-03 2.521098554E-01
 -7.802915294E-03 2.572032809E-01
 -7.741526235E-03 2.622970939E-01
 -7.680130657E-03 2.673914433E-01
 -7.617022377E-03 2.724864483E-01
 -7.553904317E-03 2.775822580E-01
 -7.489237469E-03 2.826789618E-01
 -7.424556650E-03 2.877767384E-01
 -7.358487230E-03 2.928757370E-01
 -7.292400580E-03 2.979760170E-01
 -7.225083187E-03 3.030778170E-01
 -7.157743908E-03 3.081811965E-01
 -7.089328021E-03 3.132863045E-01
 -7.020887453E-03 3.183932900E-01
 -6.951516960E-03 3.235023022E-01
 -6.882117596E-03 3.286134899E-01
 -6.811931729E-03 3.337269425E-01
 -6.741712801E-03 3.388428390E-01
 -6.670843344E-03 3.439613581E-01
 -6.599935703E-03 3.490825891E-01
 -6.528505590E-03 3.542067111E-01
 -6.457033567E-03 3.593338430E-01
 -6.385158747E-03 3.644641638E-01
 -6.313238293E-03 3.695977926E-01
 -6.241025869E-03 3.747349381E-01
 -6.168762222E-03 3.798756897E-01
 -6.096307188E-03 3.850202560E-01
 -6.023795810E-03 3.901687860E-01
 -5.951185245E-03 3.953213990E-01
 -5.878513679E-03 4.004783630E-01
 -5.805821624E-03 4.056397378E-01
 -5.733064376E-03 4.108057320E-01
 -5.660355091E-03 4.159765244E-01
 -5.587576423E-03 4.211522639E-01
 -5.514902528E-03 4.263331890E-01
 -5.442154594E-03 4.315193892E-01
 -5.369557068E-03 4.367111325E-01
 -5.296881311E-03 4.419085085E-01
 -5.224390421E-03 4.471118152E-01
 -5.151815247E-03 4.523211718E-01
 -5.079449620E-03 4.575367868E-01
 -5.006993655E-03 4.627588689E-01
 -4.934758414E-03 4.679876268E-01
 -4.862428643E-03 4.732232988E-01
 -4.790320061E-03 4.784659743E-01
 -4.718110431E-03 4.837159812E-01
 -4.646111280E-03 4.889734983E-01
 -4.574005492E-03 4.942387640E-01
 -4.502086900E-03 4.995119274E-01
 -4.430056084E-03 5.047933459E-01
 -4.358176608E-03 5.100831389E-01
 -4.286179319E-03 5.153816342E-01
 -4.214284476E-03 5.206890106E-01
 -4.142265767E-03 5.260055661E-01
 -4.070285242E-03 5.313314795E-01
 -3.998175263E-03 5.366671085E-01
 -3.926022910E-03 5.420126319E-01
 -3.853734117E-03 5.473683476E-01
 -3.781307023E-03 5.527345538E-01
 -3.708734876E-03 5.581115484E-01
 -3.635908477E-03 5.634995103E-01
 -3.562929342E-03 5.688988566E-01
 -3.489566268E-03 5.743098259E-01
 -3.416041378E-03 5.797327161E-01
 -3.342000302E-03 5.851678848E-01
 -3.267788095E-03 5.906156301E-01
 -3.192946315E-03 5.960762501E-01
 -3.117923625E-03 6.015500426E-01
 -3.042219207E-03 6.070374250E-01
 -2.966321772E-03 6.125387549E-01
 -2.889802214E-03 6.180542707E-01
 -2.813078929E-03 6.235845089E-01
 -2.735956339E-03 6.291297078E-01
 -2.658620011E-03 6.346902251E-01
 -2.581304405E-03 6.402664781E-01
 -2.503764117E-03 6.458590031E-01
 -2.426841296E-03 6.514679790E-01
 -2.349686110E-03 6.570940018E-01
 -2.273849212E-03 6.627373695E-01
 -2.197773894E-03 6.683985591E-01
 -2.123709302E-03 6.740779877E-01
 -2.049401170E-03 6.797762513E-01
 -1.977684209E-03 6.854935884E-01
 -1.905722078E-03 6.912305951E-01
 -1.836757758E-03 6.969877481E-01
 -1.767549198E-03 7.027654648E-01
 -1.701574423E-03 7.085643411E-01
 -1.635356341E-03 7.143849134E-01
 -1.572480076E-03 7.202275991E-01
 -1.509362133E-03 7.260929942E-01
 -1.449612319E-03 7.319816351E-01
 -1.389623736E-03 7.378941178E-01
 -1.332985237E-03 7.438310385E-01
 -1.276111347E-03 7.497929931E-01
 -1.222543069E-03 7.557805181E-01
 -1.168743009E-03 7.617942095E-01
 -1.118181623E-03 7.678348422E-01
 -1.067393343E-03 7.739029527E-01
 -1.019759919E-03 7.799991369E-01
 -9.719041991E-04 7.861242294E-01
 -9.271032759E-04 7.922788858E-01
 -8.820861112E-04 7.984637618E-01
 -8.400145452E-04 8.046796322E-01
 -7.977318019E-04 8.109272718E-01
 -7.582820836E-04 8.172072768E-01
 -7.186266594E-04 8.235206008E-01
 -6.816890673E-04 8.298678994E-01
 -6.445518811E-04 8.362501264E-01
 -6.100194878E-04 8.426681161E-01
 -5.752943689E-04 8.491225839E-01
 -5.430658348E-04 8.556144238E-01
 -5.106505123E-04 8.621446490E-01
 -4.806292127E-04 8.687141538E-01
 -4.504282842E-04 8.753237128E-01
 -4.225256853E-04 8.819744587E-01
 -3.944498021E-04 8.886673450E-01
 -3.685854026E-04 8.954033256E-01
 -3.425553150E-04 9.021833539E-01
 -3.186583344E-04 9.090086222E-01
 -2.946027380E-04 9.158802032E-01
 -2.726122038E-04 9.227990508E-01
 -2.504711156E-04 9.297664762E-01
 -2.303374640E-04 9.367834330E-01
 -2.100617567E-04 9.438512921E-01
 -1.917474001E-04 9.509711862E-01
 -1.733001409E-04 9.581443071E-01
 -1.567807340E-04 9.653719664E-01
 -1.401378977E-04 9.726553559E-01
 -1.254021772E-04 9.799959660E-01
 -1.105530901E-04 9.873951077E-01
 -9.760308603E-05 9.948540330E-01
 -8.455083298E-05 1.002374411E+00
 -7.340035518E-05 1.009957433E+00
 -6.215974281E-05 1.017604709E+00
 -5.282926213E-05 1.025317788E+00
 -4.342202737E-05 1.033098102E+00
 -3.592663415E-05 1.040947437E+00
 -2.836881686E-05 1.048867345E+00
 -2.269168181E-05 1.056859374E+00
 -1.696707659E-05 1.064925432E+00
 -1.301474913E-05 1.073067069E+00
 -9.029916328E-06 1.081286311E+00
 -6.584515631E-06 1.089584827E+00
 -4.119950518E-06 1.097964406E+00
 -2.830960511E-06 1.106427193E+00
 -1.532952865E-06 1.114975095E+00
 -9.851929690E-07 1.123610020E+00
 -4.345255888E-07 1.132334113E+00
 -2.623498006E-07 1.141149521E+00
 -8.987170474E-08 1.150058270E+00
 -5.655832780E-08 1.159062624E+00
 -2.350195238E-08 1.168164849E+00
 -2.133934274E-08 1.177367330E+00
 -1.930882831E-08 1.186672330E+00
 -1.823815232E-08 1.196082354E+00
 -1.716380993E-08 1.205599904E+00
 -1.492666613E-08 1.215227365E+00
 -1.265609129E-08 1.224967599E+00
 -1.077462386E-08 1.234822989E+00
 -8.870971513E-09 1.244796395E+00
 -7.596253404E-09 1.254890561E+00
 -6.308454203E-09 1.265108466E+00
 -5.386271873E-09 1.275452852E+00
 -4.454111746E-09 1.285926819E+00
 -3.753847455E-09 1.296533465E+00
 -3.045556030E-09 1.307275772E+00
 -2.539584321E-09 1.318157077E+00
 -2.027829238E-09 1.329180717E+00
 -1.688049589E-09 1.340349913E+00
 -1.344505396E-09 1.351668119E+00
 -1.127227311E-09 1.363138914E+00
 -9.075987739E-10 1.374765873E+00
 -7.716596806E-10 1.386552572E+00
 -6.342548153E-10 1.398503065E+00
 -5.502062694E-10 1.410620928E+00
 -4.652485064E-10 1.422910333E+00
 -4.142198806E-10 1.435375333E+00
 -3.626411949E-10 1.448019862E+00
 -3.326446063E-10 1.460848331E+00
 -3.023296336E-10 1.473865032E+00
 -2.855687908E-10 1.487074256E+00
 -2.686368350E-10 1.500481009E+00
 -2.600080151E-10 1.514089465E+00
 -2.512984543E-10 1.527904630E+00
 -2.475103456E-10 1.541931272E+00
 -2.436945923E-10 1.556174636E+00
 -2.426737977E-10 1.570639491E+00
 -2.416551126E-10 1.585331202E+00
 -2.421255696E-10 1.600255251E+00
 -2.426135404E-10 1.615417004E+00
 -2.438120261E-10 1.630822182E+00
 -2.450348258E-10 1.646476269E+00
 -2.465257720E-10 1.662385464E+00
 -2.480431416E-10 1.678555489E+00
 -2.495972595E-10 1.694992781E+00
 -2.511776065E-10 1.711703539E+00
 -2.526885923E-10 1.728694201E+00
 -2.542246136E-10 1.745971322E+00
 -2.556511391E-10 1.763541818E+00
 -2.571012570E-10 1.781412363E+00
 -2.584304160E-10 1.799590468E+00
 -2.597816684E-10 1.818082929E+00
 -2.610097138E-10 1.836897492E+00
 -2.622583539E-10 1.856041551E+00
 -2.633842866E-10 1.875522971E+00
 -2.645292319E-10 1.895349860E+00
 -2.655539399E-10 1.915530086E+00
 -2.665960785E-10 1.936072350E+00
 -2.675226429E-10 1.956984758E+00
 -2.684650835E-10 1.978276372E+00
 -2.692981116E-10 1.999956131E+00
 -2.701454616E-10 2.022032976E+00
 -2.708895885E-10 2.044516563E+00
 -2.716466219E-10 2.067416430E+00
 -2.723058723E-10 2.090742111E+00
 -2.729765858E-10 2.114504099E+00
 -2.735542626E-10 2.138712406E+00
 -2.741420146E-10 2.163377523E+00
 -2.746411154E-10 2.188510418E+00
 -2.751489592E-10 2.214122057E+00
 -2.755723982E-10 2.240223885E+00
 -2.760032203E-10 2.266827345E+00
 -2.763536067E-10 2.293944120E+00
 -2.767100715E-10 2.321586609E+00
 -2.769896534E-10 2.349766970E+00
 -2.772740093E-10 2.378498316E+00
 -2.774845909E-10 2.407793045E+00
 -2.776986141E-10 2.437664986E+00
 -2.778415276E-10 2.468127728E+00
 -2.779865782E-10 2.499194860E+00
 -2.780628505E-10 2.530880928E+00
 -2.781399555E-10 2.563199997E+00
 -2.781500308E-10 2.596168041E+00
 -2.781597175E-10 2.629799843E+00
 -2.781037900E-10 2.664110661E+00
 -2.780461139E-10 2.699117184E+00
 -2.779239061E-10 2.734835386E+00
 -2.777985897E-10 2.771282434E+00
 -2.776093799E-10 2.808475256E+00
 -2.774156460E-10 2.846431494E+00
 -2.771582963E-10 2.885169268E+00
 -2.768950347E-10 2.924707174E+00
 -2.765679907E-10 2.965063572E+00
 -2.762335360E-10 3.006258488E+00
 -2.758347162E-10 3.048310995E+00
 -2.754269035E-10 3.091241837E+00
 -2.749537265E-10 3.135071754E+00
 -2.744698913E-10 3.179821730E+00
 -2.739190541E-10 3.225513458E+00
 -2.733559212E-10 3.272169590E+00
 -2.727237880E-10 3.319812059E+00
 -2.720775549E-10 3.368465185E+00
 -2.713597680E-10 3.418152094E+00
 -2.706259938E-10 3.468897581E+00
 -2.698177515E-10 3.520726442E+00
 -2.689914402E-10 3.573664188E+00
 -2.680872746E-10 3.627737284E+00
 -2.671628752E-10 3.682971954E+00
 -2.661566800E-10 3.739396572E+00
 -2.651278919E-10 3.797038555E+00
 -2.640129504E-10 3.855926514E+00
 -2.628729179E-10 3.916090250E+00
 -2.616417916E-10 3.977559328E+00
 -2.603829097E-10 4.040365696E+00
 -2.590274661E-10 4.104539871E+00
 -2.576413805E-10 4.170114040E+00
 -2.561527934E-10 4.237122059E+00
 -2.546304556E-10 4.305597782E+00
 -2.529990939E-10 4.375575066E+00
 -2.513307062E-10 4.447089672E+00
 -2.495461893E-10 4.520178318E+00
 -2.477210659E-10 4.594877720E+00
 -2.457722637E-10 4.671226025E+00
 -2.437789970E-10 4.749261856E+00
 -2.416539191E-10 4.829025745E+00
 -2.394802134E-10 4.910557747E+00
 -2.371660646E-10 4.993899822E+00
 -2.347988748E-10 5.079095364E+00
 -2.322820408E-10 5.166187763E+00
 -2.297074336E-10 5.255220890E+00
 -2.269735372E-10 5.346241474E+00
 -2.241767466E-10 5.439296246E+00
 -2.212106193E-10 5.534433365E+00
 -2.181761161E-10 5.631701946E+00
 -2.149618261E-10 5.731152534E+00
 -2.116732900E-10 5.832835674E+00
 -2.081942257E-10 5.936804771E+00
 -2.046346564E-10 6.043114185E+00
 -2.008735678E-10 6.151818275E+00
 -1.970253266E-10 6.262974262E+00
 -1.929644500E-10 6.376639843E+00
 -1.888093154E-10 6.492874146E+00
 -1.844304015E-10 6.611737728E+00
 -1.799497773E-10 6.733292580E+00
 -1.752343964E-10 6.857603073E+00
 -1.704093394E-10 6.984733105E+00
 -1.653388815E-10 7.114749908E+00
 -1.601503374E-10 7.247721672E+00
 -1.547065254E-10 7.383717537E+00
 -1.491358564E-10 7.522809505E+00
 -1.433003577E-10 7.665070534E+00
 -1.373287456E-10 7.810575485E+00
 -1.310844627E-10 7.959400654E+00
 -1.246944492E-10 8.111624718E+00
 -1.179978615E-10 8.267328262E+00
 -1.111446282E-10 8.426591873E+00
 -1.039691042E-10 8.589501381E+00
 -9.662556172E-11 8.756142616E+00
 -8.926749617E-11 8.926602364E+00
 -8.174045468E-11 9.100972176E+00
 -7.536388180E-11 9.279343605E+00
 -6.885464421E-11 9.461811066E+00
 -5.400773578E-11 9.648471832E+00
 -3.872226151E-11 9.839425087E+00
 -3.552649147E-11 1.003477097E+01
 -3.239928464E-11 1.023461342E+01
 -2.927077677E-11 1.043905926E+01
 -2.606889357E-11 1.064821720E+01
ZONE T="x = 650 mm"
 6.615650302E-12 -4.091066837E+00
 7.532958632E-12 -4.041907787E+00
 8.380637330E-12 -3.993742228E+00
 4.164498173E-12 -3.946547508E+00
 5.702229189E-14 -3.900302410E+00
 -1.631256978E-12 -3.854984283E+00
 -3.267586072E-12 -3.810571671E+00
 -2.923936267E-12 -3.767044067E+00
 -2.583209254E-12 -3.724380732E+00
 -1.757472531E-12 -3.682561636E+00
 -9.506318259E-13 -3.641567469E+00
 -4.195402435E-13 -3.601379395E+00
 9.822662296E-14 -3.561978579E+00
 2.603756241E-13 -3.523347139E+00
 4.179700206E-13 -3.485466957E+00
 3.838029883E-13 -3.448320866E+00
 3.500860084E-13 -3.411892176E+00
 2.756826072E-13 -3.376163960E+00
 2.029569004E-13 -3.341120243E+00
 1.598275006E-13 -3.306745291E+00
 1.177857725E-13 -3.273023367E+00
 1.157686414E-13 -3.239939928E+00
 1.139340765E-13 -3.207479715E+00
 1.380694875E-13 -3.175628901E+00
 1.617915735E-13 -3.144373178E+00
 1.954370368E-13 -3.113698721E+00
 2.284445419E-13 -3.083591938E+00
 2.614292517E-13 -3.054040194E+00
 2.937806790E-13 -3.025030375E+00
 3.222981506E-13 -2.996550560E+00
 3.502742530E-13 -2.968587637E+00
 3.742270437E-13 -2.941130161E+00
 3.977337936E-13 -2.914166451E+00
 4.183712567E-13 -2.887685061E+00
 4.386320680E-13 -2.861674786E+00
 4.572335349E-13 -2.836125135E+00
 4.755011489E-13 -2.811025143E+00
 4.929148994E-13 -2.786364317E+00
 5.100200318E-13 -2.762133121E+00
 5.266597163E-13 -2.738320827E+00
 5.430076961E-13 -2.714918613E+00
 5.590029308E-13 -2.691916466E+00
 5.747208807E-13 -2.669305325E+00
 5.900666240E-13 -2.647075891E+00
 6.051492857E-13 -2.625220060E+00
 6.198023323E-13 -2.603728533E+00
 6.342073134E-13 -2.582592964E+00
 6.481324808E-13 -2.561805725E+00
 6.618250869E-13 -2.541357994E+00
 6.750090395E-13 -2.521242619E+00
 6.879754470E-13 -2.501451731E+00
 7.004231722E-13 -2.481977701E+00
 7.126684225E-13 -2.462813139E+00
 7.243966711E-13 -2.443951130E+00
 7.359369733E-13 -2.425384521E+00
 7.469681883E-13 -2.407106876E+00
 7.578254430E-13 -2.389111042E+00
 7.681827180E-13 -2.371390820E+00
 7.783791515E-13 -2.353939772E+00
 7.880838994E-13 -2.336751938E+00
 7.976403284E-13 -2.319820881E+00
 8.067120648E-13 -2.303140402E+00
 8.156472459E-13 -2.286705256E+00
 8.241027760E-13 -2.270509958E+00
 8.324332434E-13 -2.254548550E+00
 8.402879087E-13 -2.238815546E+00
 8.480281906E-13 -2.223306179E+00
 8.552951099E-13 -2.208014965E+00
 8.624583795E-13 -2.192936659E+00
 8.691501295E-13 -2.178066730E+00
 8.757482586E-13 -2.163400173E+00
 8.818758983E-13 -2.148932457E+00
 8.879194038E-13 -2.134658813E+00
 8.934923114E-13 -2.120574951E+00
 8.989901380E-13 -2.106676340E+00
 9.040172040E-13 -2.092958927E+00
 9.089778626E-13 -2.079418182E+00
 9.134668933E-13 -2.066050291E+00
 9.178979191E-13 -2.052850962E+00
 9.218552571E-13 -2.039816856E+00
 9.257626133E-13 -2.026943684E+00
 9.291941131E-13 -2.014228106E+00
 9.325833291E-13 -2.001666307E+00
 9.354936530E-13 -1.989254475E+00
 9.383686319E-13 -1.976989388E+00
 9.407611409E-13 -1.964867711E+00
 9.431253521E-13 -1.952886105E+00
 9.450024313E-13 -1.941041350E+00
 9.468579349E-13 -1.929330230E+00
 9.482207771E-13 -1.917749763E+00
 9.495684404E-13 -1.906296968E+00
 9.504176959E-13 -1.894968510E+00
 9.512577358E-13 -1.883762002E+00
 9.515926458E-13 -1.872674346E+00
 9.519240864E-13 -1.861703038E+00
 9.517425910E-13 -1.850845098E+00
 9.515633724E-13 -1.840098143E+00
 9.508624357E-13 -1.829459667E+00
 9.501688715E-13 -1.818926811E+00
 9.489443736E-13 -1.808497429E+00
 9.477323440E-13 -1.798169017E+00
 9.459789722E-13 -1.787939548E+00
 9.442428393E-13 -1.777806282E+00
 9.419545222E-13 -1.767767310E+00
 9.396878891E-13 -1.757820249E+00
 9.368564952E-13 -1.747963190E+00
 9.340512305E-13 -1.738193870E+00
 9.306675439E-13 -1.728510380E+00
 9.273142150E-13 -1.718910694E+00
 9.233683696E-13 -1.709393024E+00
 9.194568934E-13 -1.699955225E+00
 9.149370714E-13 -1.690595627E+00
 9.104554133E-13 -1.681312323E+00
 9.053482790E-13 -1.672103643E+00
 9.002830491E-13 -1.662967920E+00
 8.945739115E-13 -1.653903246E+00
 8.889102020E-13 -1.644908190E+00
 8.825831775E-13 -1.635981083E+00
 8.763048880E-13 -1.627120376E+00
 8.693423585E-13 -1.618324518E+00
 8.624315997E-13 -1.609591961E+00
 8.548134531E-13 -1.600921273E+00
 8.472501672E-13 -1.592311025E+00
 8.389555869E-13 -1.583759904E+00
 8.307187945E-13 -1.575266480E+00
 8.217245786E-13 -1.566829324E+00
 8.127908611E-13 -1.558447361E+00
 8.030719644E-13 -1.550119162E+00
 7.934163851E-13 -1.541843534E+00
 7.829458110E-13 -1.533619285E+00
 7.725411565E-13 -1.525445104E+00
 7.612895774E-13 -1.517320037E+00