# CFL3D result at x/D=50, extracted along diagonal and vertical lines, SA model
VARIABLES = "u/u_CL","2z/D","x/D"
ZONE T="cfl3d diag 50"
 1.343629905E-03 2.878091764E-03 5.000000000E+01
 3.744295612E-02 6.210073363E-03 5.000000000E+01
 1.078909934E-01 9.542055428E-03 5.000000000E+01
 1.702183187E-01 1.287403703E-02 5.000000000E+01
 2.102190703E-01 1.620601863E-02 5.000000000E+01
 2.384046018E-01 1.953800023E-02 5.000000000E+01
 2.608306110E-01 2.286998183E-02 5.000000000E+01
 2.800044715E-01 2.620196342E-02 5.000000000E+01
 2.970516086E-01 2.953394502E-02 5.000000000E+01
 3.124627173E-01 3.286592662E-02 5.000000000E+01
 3.266666532E-01 3.619790822E-02 5.000000000E+01
 3.398919404E-01 3.952988982E-02 5.000000000E+01
 3.523076773E-01 4.286187142E-02 5.000000000E+01
 3.640123010E-01 4.619385302E-02 5.000000000E+01
 3.751381040E-01 4.952583462E-02 5.000000000E+01
 3.857047260E-01 5.285781994E-02 5.000000000E+01
 3.958236873E-01 5.618980154E-02 5.000000000E+01
 4.054978192E-01 5.952178314E-02 5.000000000E+01
 4.148058891E-01 6.285376102E-02 5.000000000E+01
 4.237521291E-01 6.618574262E-02 5.000000000E+01
 4.323742688E-01 6.951772422E-02 5.000000000E+01
 4.407059848E-01 7.284970582E-02 5.000000000E+01
 4.487868547E-01 7.618168741E-02 5.000000000E+01
 4.565647542E-01 7.951366901E-02 5.000000000E+01
 4.641852677E-01 8.284565061E-02 5.000000000E+01
 4.715002477E-01 8.617763221E-02 5.000000000E+01
 4.786939025E-01 8.950961381E-02 5.000000000E+01
 4.856618047E-01 9.284160286E-02 5.000000000E+01
 4.924117327E-01 9.617358446E-02 5.000000000E+01
 4.990872145E-01 9.950556606E-02 5.000000000E+01
 5.055184364E-01 1.028375477E-01 5.000000000E+01
 5.117971301E-01 1.061695293E-01 5.000000000E+01
 5.180082321E-01 1.095015109E-01 5.000000000E+01
 5.240404606E-01 1.128334925E-01 5.000000000E+01
 5.298917294E-01 1.161654741E-01 5.000000000E+01
 5.356866717E-01 1.194974557E-01 5.000000000E+01
 5.413999557E-01 1.228294373E-01 5.000000000E+01
 5.468971729E-01 1.261614114E-01 5.000000000E+01
 5.523220897E-01 1.294934005E-01 5.000000000E+01
 5.576921701E-01 1.328253746E-01 5.000000000E+01
 5.629761815E-01 1.361573637E-01 5.000000000E+01
 5.680661798E-01 1.394893378E-01 5.000000000E+01
 5.731080174E-01 1.428213269E-01 5.000000000E+01
 5.780995488E-01 1.461533010E-01 5.000000000E+01
 5.830414295E-01 1.494852901E-01 5.000000000E+01
 5.878051519E-01 1.528172642E-01 5.000000000E+01
 5.924987793E-01 1.561492532E-01 5.000000000E+01
 5.971555710E-01 1.594812274E-01 5.000000000E+01
 6.017770171E-01 1.628132164E-01 5.000000000E+01
 6.063254476E-01 1.661451906E-01 5.000000000E+01
 6.107130051E-01 1.694771796E-01 5.000000000E+01
 6.150651574E-01 1.728091538E-01 5.000000000E+01
 6.193836927E-01 1.761411428E-01 5.000000000E+01
 6.236713529E-01 1.794731319E-01 5.000000000E+01
 6.279124022E-01 1.828051060E-01 5.000000000E+01
 6.320041418E-01 1.861370951E-01 5.000000000E+01
 6.360476017E-01 1.894690692E-01 5.000000000E+01
 6.400675774E-01 1.928010583E-01 5.000000000E+01
 6.440534592E-01 1.961330324E-01 5.000000000E+01
 6.480174661E-01 1.994650215E-01 5.000000000E+01
 6.519192457E-01 2.027969956E-01 5.000000000E+01
 6.556873918E-01 2.061289847E-01 5.000000000E+01
 6.594307423E-01 2.094609588E-01 5.000000000E+01
 6.631535888E-01 2.127929479E-01 5.000000000E+01
 6.668459177E-01 2.161249220E-01 5.000000000E+01
 6.705185771E-01 2.194569111E-01 5.000000000E+01
 6.741616130E-01 2.227888852E-01 5.000000000E+01
 6.776808500E-01 2.261208743E-01 5.000000000E+01
 6.811529398E-01 2.294528484E-01 5.000000000E+01
 6.846069098E-01 2.327848375E-01 5.000000000E+01
 6.880397201E-01 2.361168116E-01 5.000000000E+01
 6.914489865E-01 2.394488007E-01 5.000000000E+01
 6.948403716E-01 2.427807748E-01 5.000000000E+01
 6.982073784E-01 2.461127639E-01 5.000000000E+01
 7.014607191E-01 2.494447380E-01 5.000000000E+01
 7.046700716E-01 2.527767122E-01 5.000000000E+01
 7.078629732E-01 2.561087012E-01 5.000000000E+01
 7.110396624E-01 2.594406903E-01 5.000000000E+01
 7.141937017E-01 2.627726793E-01 5.000000000E+01
 7.173314095E-01 2.661046386E-01 5.000000000E+01
 7.204532027E-01 2.694366276E-01 5.000000000E+01
 7.235399485E-01 2.727686167E-01 5.000000000E+01
 7.265213132E-01 2.761006057E-01 5.000000000E+01
 7.294772863E-01 2.794325650E-01 5.000000000E+01
 7.324186563E-01 2.827645540E-01 5.000000000E+01
 7.353453636E-01 2.860965431E-01 5.000000000E+01
 7.382538319E-01 2.894285321E-01 5.000000000E+01
 7.411468029E-01 2.927604914E-01 5.000000000E+01
 7.440254688E-01 2.960924804E-01 5.000000000E+01
 7.468898892E-01 2.994244695E-01 5.000000000E+01
 7.496866584E-01 3.027564585E-01 5.000000000E+01
 7.524124980E-01 3.060884178E-01 5.000000000E+01
 7.551251054E-01 3.094204068E-01 5.000000000E+01
 7.578246593E-01 3.127523959E-01 5.000000000E+01
 7.605112791E-01 3.160843849E-01 5.000000000E+01
 7.631826401E-01 3.194163442E-01 5.000000000E+01
 7.658402324E-01 3.227483332E-01 5.000000000E+01
 7.684851289E-01 3.260803223E-01 5.000000000E+01
 7.711173296E-01 3.294123113E-01 5.000000000E+01
 7.737256289E-01 3.327442706E-01 5.000000000E+01
 7.762405276E-01 3.360762596E-01 5.000000000E+01
 7.787314653E-01 3.394082487E-01 5.000000000E+01
 7.812107205E-01 3.427402377E-01 5.000000000E+01
 7.836783528E-01 3.460722268E-01 5.000000000E+01
 7.861345410E-01 3.494041860E-01 5.000000000E+01
 7.885780334E-01 3.527361751E-01 5.000000000E+01
 7.910096049E-01 3.560681641E-01 5.000000000E+01
 7.934299707E-01 3.594001532E-01 5.000000000E+01
 7.958390117E-01 3.627321124E-01 5.000000000E+01
 7.982369661E-01 3.660641015E-01 5.000000000E+01
 8.005737662E-01 3.693960905E-01 5.000000000E+01
 8.028492332E-01 3.727280796E-01 5.000000000E+01
 8.051143885E-01 3.760600388E-01 5.000000000E+01
 8.073694110E-01 3.793920279E-01 5.000000000E+01
 8.096142411E-01 3.827240169E-01 5.000000000E+01
 8.118489981E-01 3.860560060E-01 5.000000000E+01
 8.140734434E-01 3.893879652E-01 5.000000000E+01
 8.162876964E-01 3.927199543E-01 5.000000000E+01
 8.184920549E-01 3.960519433E-01 5.000000000E+01
 8.206864595E-01 3.993839324E-01 5.000000000E+01
 8.228711486E-01 4.027158916E-01 5.000000000E+01
 8.250414729E-01 4.060478806E-01 5.000000000E+01
 8.271216750E-01 4.093798697E-01 5.000000000E+01
 8.291780353E-01 4.127118587E-01 5.000000000E+01
 8.312255144E-01 4.160438180E-01 5.000000000E+01
 8.332641125E-01 4.193758070E-01 5.000000000E+01
 8.352939487E-01 4.227077961E-01 5.000000000E+01
 8.373150229E-01 4.260397851E-01 5.000000000E+01
 8.393276930E-01 4.293717444E-01 5.000000000E+01
 8.413319588E-01 4.327037334E-01 5.000000000E+01
 8.433275819E-01 4.360357225E-01 5.000000000E+01
 8.453146219E-01 4.393677115E-01 5.000000000E+01
 8.472931981E-01 4.426996708E-01 5.000000000E+01
 8.492632508E-01 4.460316598E-01 5.000000000E+01
 8.512118459E-01 4.493636489E-01 5.000000000E+01
 8.530678153E-01 4.526956379E-01 5.000000000E+01
 8.549110889E-01 4.560275972E-01 5.000000000E+01
 8.567467332E-01 4.593595862E-01 5.000000000E+01
 8.585747480E-01 4.626915753E-01 5.000000000E+01
 8.603953719E-01 4.660235643E-01 5.000000000E+01
 8.622085452E-01 4.693555236E-01 5.000000000E+01
 8.640142679E-01 4.726875126E-01 5.000000000E+01
 8.658139110E-01 4.760195017E-01 5.000000000E+01
 8.676061630E-01 4.793514907E-01 5.000000000E+01
 8.693910241E-01 4.826834500E-01 5.000000000E+01
 8.711686730E-01 4.860154390E-01 5.000000000E+01
 8.729391098E-01 4.893474281E-01 5.000000000E+01
 8.747022748E-01 4.926794171E-01 5.000000000E+01
 8.764551878E-01 4.960114062E-01 5.000000000E+01
 8.781083822E-01 4.993433654E-01 5.000000000E+01
 8.797415495E-01 5.026753545E-01 5.000000000E+01
 8.813683391E-01 5.060073137E-01 5.000000000E+01
 8.829889894E-01 5.093393326E-01 5.000000000E+01
 8.846032619E-01 5.126712918E-01 5.000000000E+01
 8.862113953E-01 5.160033107E-01 5.000000000E+01
 8.878133893E-01 5.193352699E-01 5.000000000E+01
 8.894094229E-01 5.226672292E-01 5.000000000E+01
 8.910008073E-01 5.259992480E-01 5.000000000E+01
 8.925861716E-01 5.293312073E-01 5.000000000E+01
 8.941653371E-01 5.326631665E-01 5.000000000E+01
 8.957386017E-01 5.359951854E-01 5.000000000E+01
 8.973057866E-01 5.393271446E-01 5.000000000E+01
 8.988670707E-01 5.426591635E-01 5.000000000E+01
 9.004223347E-01 5.459911227E-01 5.000000000E+01
 9.019426107E-01 5.493230820E-01 5.000000000E+01
 9.033650160E-01 5.526551008E-01 5.000000000E+01
 9.047822952E-01 5.559870601E-01 5.000000000E+01
 9.061945677E-01 5.593190193E-01 5.000000000E+01
 9.076018333E-01 5.626510382E-01 5.000000000E+01
 9.090040922E-01 5.659829974E-01 5.000000000E+01
 9.104014635E-01 5.693150163E-01 5.000000000E+01
 9.117938280E-01 5.726469755E-01 5.000000000E+01
 9.131813645E-01 5.759789348E-01 5.000000000E+01
 9.145651460E-01 5.793109536E-01 5.000000000E+01
 9.159448147E-01 5.826429129E-01 5.000000000E+01
 9.173195958E-01 5.859748721E-01 5.000000000E+01
 9.186895490E-01 5.893068910E-01 5.000000000E+01
 9.200546741E-01 5.926388502E-01 5.000000000E+01
 9.214150310E-01 5.959708691E-01 5.000000000E+01
 9.227706790E-01 5.993028283E-01 5.000000000E+01
 9.241215587E-01 6.026347876E-01 5.000000000E+01
 9.254658222E-01 6.059668064E-01 5.000000000E+01
 9.266803861E-01 6.092987657E-01 5.000000000E+01
 9.278785586E-01 6.126307249E-01 5.000000000E+01
 9.290729761E-01 6.159627438E-01 5.000000000E+01
 9.302636385E-01 6.192947030E-01 5.000000000E+01
 9.314505458E-01 6.226267219E-01 5.000000000E+01
 9.326336980E-01 6.259586811E-01 5.000000000E+01
 9.338130951E-01 6.292906404E-01 5.000000000E+01
 9.349887371E-01 6.326226592E-01 5.000000000E+01
 9.361608028E-01 6.359546185E-01 5.000000000E+01
 9.373298287E-01 6.392865777E-01 5.000000000E+01
 9.384964108E-01 6.426185966E-01 5.000000000E+01
 9.396594167E-01 6.459505558E-01 5.000000000E+01
 9.408186674E-01 6.492825747E-01 5.000000000E+01
 9.419743419E-01 6.526145339E-01 5.000000000E+01
 9.431263208E-01 6.559464931E-01 5.000000000E+01
 9.442747831E-01 6.592785120E-01 5.000000000E+01
 9.454195499E-01 6.626104712E-01 5.000000000E+01
 9.465608597E-01 6.659424901E-01 5.000000000E+01
 9.476986527E-01 6.692744493E-01 5.000000000E+01
 9.487037063E-01 6.726064086E-01 5.000000000E+01
 9.496705532E-01 6.759384274E-01 5.000000000E+01
 9.506347775E-01 6.792703867E-01 5.000000000E+01
 9.515964985E-01 6.826023459E-01 5.000000000E+01
 9.525556564E-01 6.859343648E-01 5.000000000E+01
 9.535121322E-01 6.892663240E-01 5.000000000E+01
 9.544661045E-01 6.925983429E-01 5.000000000E+01
 9.554175138E-01 6.959303021E-01 5.000000000E+01
 9.563664198E-01 6.992622614E-01 5.000000000E+01
 9.573127031E-01 7.025942802E-01 5.000000000E+01
 9.582569599E-01 7.059262395E-01 5.000000000E+01
 9.592001438E-01 7.092581987E-01 5.000000000E+01
 9.601407647E-01 7.125902176E-01 5.000000000E+01
 9.610789418E-01 7.159221768E-01 5.000000000E+01
 9.620145559E-01 7.192541957E-01 5.000000000E+01
 9.629477859E-01 7.225861549E-01 5.000000000E+01
 9.638783932E-01 7.259181142E-01 5.000000000E+01
 9.648066163E-01 7.292501330E-01 5.000000000E+01
 9.657323360E-01 7.325820923E-01 5.000000000E+01
 9.666556120E-01 7.359140515E-01 5.000000000E+01
 9.675765038E-01 7.392460704E-01 5.000000000E+01
 9.683705568E-01 7.425780296E-01 5.000000000E+01
 9.690895081E-01 7.459100485E-01 5.000000000E+01
 9.698069096E-01 7.492420077E-01 5.000000000E+01
 9.705227613E-01 7.525739670E-01 5.000000000E+01
 9.712371826E-01 7.559059858E-01 5.000000000E+01
 9.719501138E-01 7.592379451E-01 5.000000000E+01
 9.726615548E-01 7.625699043E-01 5.000000000E+01
 9.733715653E-01 7.659019232E-01 5.000000000E+01
 9.740799665E-01 7.692338824E-01 5.000000000E+01
 9.747869372E-01 7.725659013E-01 5.000000000E+01
 9.754925370E-01 7.758978605E-01 5.000000000E+01
 9.761965871E-01 7.792298198E-01 5.000000000E+01
 9.769007564E-01 7.825618386E-01 5.000000000E+01
 9.776036143E-01 7.858937979E-01 5.000000000E+01
 9.783049822E-01 7.892257571E-01 5.000000000E+01
 9.790049195E-01 7.925577760E-01 5.000000000E+01
 9.797033668E-01 7.958897352E-01 5.000000000E+01
 9.804003835E-01 7.992217541E-01 5.000000000E+01
 9.810960293E-01 8.025537133E-01 5.000000000E+01
 9.817900658E-01 8.058856726E-01 5.000000000E+01
 9.824827909E-01 8.092176914E-01 5.000000000E+01
 9.831740856E-01 8.125496507E-01 5.000000000E+01
 9.838638902E-01 8.158816099E-01 5.000000000E+01
 9.844940901E-01 8.192136288E-01 5.000000000E+01
 9.849423766E-01 8.225455880E-01 5.000000000E+01
 9.853901267E-01 8.258776069E-01 5.000000000E+01
 9.858372211E-01 8.292095661E-01 5.000000000E+01
 9.862837791E-01 8.325415254E-01 5.000000000E+01
 9.867296219E-01 8.358735442E-01 5.000000000E+01
 9.871749282E-01 8.392055035E-01 5.000000000E+01
 9.876196980E-01 8.425375223E-01 5.000000000E+01
 9.880638123E-01 8.458694816E-01 5.000000000E+01
 9.885072708E-01 8.492014408E-01 5.000000000E+01
 9.889501929E-01 8.525334597E-01 5.000000000E+01
 9.893925190E-01 8.558654189E-01 5.000000000E+01
 9.898341894E-01 8.591973782E-01 5.000000000E+01
 9.902757406E-01 8.625293970E-01 5.000000000E+01
 9.907175303E-01 8.658613563E-01 5.000000000E+01
 9.911587238E-01 8.691933751E-01 5.000000000E+01
 9.915993810E-01 8.725253344E-01 5.000000000E+01
 9.920393825E-01 8.758572936E-01 5.000000000E+01
 9.924787879E-01 8.791893125E-01 5.000000000E+01
 9.929176569E-01 8.825212717E-01 5.000000000E+01
 9.933558702E-01 8.858532310E-01 5.000000000E+01
 9.937935472E-01 8.891852498E-01 5.000000000E+01
 9.942305684E-01 8.925172091E-01 5.000000000E+01
 9.946670532E-01 8.958492279E-01 5.000000000E+01
 9.951029420E-01 8.991811872E-01 5.000000000E+01
 9.955382347E-01 9.025131464E-01 5.000000000E+01
 9.958600998E-01 9.058451653E-01 5.000000000E+01
 9.960087538E-01 9.091771245E-01 5.000000000E+01
 9.961573482E-01 9.125090837E-01 5.000000000E+01
 9.963058233E-01 9.158411026E-01 5.000000000E+01
 9.964542985E-01 9.191730618E-01 5.000000000E+01
 9.966026545E-01 9.225050807E-01 5.000000000E+01
 9.967508912E-01 9.258370399E-01 5.000000000E+01
 9.968991876E-01 9.291689992E-01 5.000000000E+01
 9.970473051E-01 9.325010180E-01 5.000000000E+01
 9.971954226E-01 9.358329773E-01 5.000000000E+01
 9.973434210E-01 9.391649365E-01 5.000000000E+01
 9.974914789E-01 9.424969554E-01 5.000000000E+01
 9.976392984E-01 9.458289146E-01 5.000000000E+01
 9.977871180E-01 9.491609335E-01 5.000000000E+01
 9.979348779E-01 9.524928927E-01 5.000000000E+01
 9.980828166E-01 9.558248520E-01 5.000000000E+01
 9.982306957E-01 9.591568708E-01 5.000000000E+01
 9.983785748E-01 9.624888301E-01 5.000000000E+01
 9.985262752E-01 9.658207893E-01 5.000000000E+01
 9.986739159E-01 9.691528082E-01 5.000000000E+01
 9.988215566E-01 9.724847674E-01 5.000000000E+01
 9.989691377E-01 9.758167863E-01 5.000000000E+01
 9.991165400E-01 9.791487455E-01 5.000000000E+01
 9.992639422E-01 9.824807048E-01 5.000000000E+01
 9.994112849E-01 9.858127236E-01 5.000000000E+01
 9.995585680E-01 9.891446829E-01 5.000000000E+01
 9.997057915E-01 9.924767017E-01 5.000000000E+01
 9.998528957E-01 9.958086610E-01 5.000000000E+01
 1.000000000E+00 9.991406202E-01 5.000000000E+01
ZONE T="cfl3d vert 50"
 1.089448407E-01 7.123036776E-04 5.000000000E+01
 4.557378888E-01 4.081307445E-03 5.000000000E+01
 5.328905582E-01 7.450310979E-03 5.000000000E+01
 5.704835653E-01 1.081931498E-02 5.000000000E+01
 5.964176655E-01 1.418831851E-02 5.000000000E+01
 6.165954471E-01 1.755732298E-02 5.000000000E+01
 6.330814958E-01 2.092632651E-02 5.000000000E+01
 6.472098231E-01 2.429533005E-02 5.000000000E+01
 6.593255997E-01 2.766433358E-02 5.000000000E+01
 6.700980663E-01 3.103333712E-02 5.000000000E+01
 6.797696948E-01 3.440234065E-02 5.000000000E+01
 6.885423660E-01 3.777134418E-02 5.000000000E+01
 6.965852380E-01 4.114034772E-02 5.000000000E+01
 7.040405273E-01 4.450935125E-02 5.000000000E+01
 7.108098865E-01 4.787835479E-02 5.000000000E+01
 7.171783447E-01 5.124736205E-02 5.000000000E+01
 7.232412696E-01 5.461636558E-02 5.000000000E+01
 7.287838459E-01 5.798536912E-02 5.000000000E+01
 7.341253161E-01 6.135437265E-02 5.000000000E+01
 7.391315103E-01 6.472337246E-02 5.000000000E+01
 7.439184785E-01 6.809237599E-02 5.000000000E+01
 7.484500408E-01 7.146137953E-02 5.000000000E+01
 7.528200150E-01 7.483038306E-02 5.000000000E+01
 7.569299340E-01 7.819939405E-02 5.000000000E+01
 7.609964013E-01 8.156839758E-02 5.000000000E+01
 7.647308111E-01 8.493740112E-02 5.000000000E+01
 7.684399486E-01 8.830640465E-02 5.000000000E+01
 7.719862461E-01 9.167540818E-02 5.000000000E+01
 7.753641009E-01 9.504441172E-02 5.000000000E+01
 7.787208557E-01 9.841341525E-02 5.000000000E+01
 7.818891406E-01 1.017824188E-01 5.000000000E+01
 7.849525809E-01 1.051514223E-01 5.000000000E+01
 7.879981995E-01 1.085204259E-01 5.000000000E+01
 7.909045219E-01 1.118894294E-01 5.000000000E+01
 7.936896086E-01 1.152584329E-01 5.000000000E+01
 7.964596748E-01 1.186274365E-01 5.000000000E+01
 7.991982102E-01 1.219964400E-01 5.000000000E+01
 8.017361760E-01 1.253654361E-01 5.000000000E+01
 8.042615056E-01 1.287344396E-01 5.000000000E+01
 8.067742586E-01 1.321034580E-01 5.000000000E+01
 8.092263937E-01 1.354724616E-01 5.000000000E+01
 8.115338683E-01 1.388414651E-01 5.000000000E+01
 8.138305545E-01 1.422104686E-01 5.000000000E+01
 8.161166310E-01 1.455794722E-01 5.000000000E+01
 8.183848262E-01 1.489484757E-01 5.000000000E+01
 8.204887509E-01 1.523174793E-01 5.000000000E+01
 8.225836158E-01 1.556864828E-01 5.000000000E+01
 8.246694207E-01 1.590554863E-01 5.000000000E+01
 8.267462850E-01 1.624244899E-01 5.000000000E+01
 8.287593126E-01 1.657934934E-01 5.000000000E+01
 8.306753635E-01 1.691624969E-01 5.000000000E+01
 8.325837851E-01 1.725315005E-01 5.000000000E+01
 8.344845176E-01 1.759005040E-01 5.000000000E+01
 8.363776207E-01 1.792695075E-01 5.000000000E+01
 8.382341266E-01 1.826385111E-01 5.000000000E+01
 8.399848938E-01 1.860075146E-01 5.000000000E+01
 8.417291045E-01 1.893765181E-01 5.000000000E+01
 8.434667587E-01 1.927455217E-01 5.000000000E+01
 8.451979160E-01 1.961145252E-01 5.000000000E+01
 8.469226360E-01 1.994835287E-01 5.000000000E+01
 8.485809565E-01 2.028525323E-01 5.000000000E+01
 8.501801491E-01 2.062215358E-01 5.000000000E+01
 8.517736793E-01 2.095905393E-01 5.000000000E+01
 8.533616066E-01 2.129595429E-01 5.000000000E+01
 8.549441099E-01 2.163285464E-01 5.000000000E+01
 8.565208912E-01 2.196975499E-01 5.000000000E+01
 8.580691814E-01 2.230665535E-01 5.000000000E+01
 8.595349789E-01 2.264355570E-01 5.000000000E+01
 8.609958887E-01 2.298045605E-01 5.000000000E+01
 8.624520898E-01 2.331735641E-01 5.000000000E+01
 8.639034629E-01 2.365425676E-01 5.000000000E+01
 8.653500676E-01 2.399115711E-01 5.000000000E+01
 8.667920232E-01 2.432805747E-01 5.000000000E+01
 8.682053089E-01 2.466495782E-01 5.000000000E+01
 8.695490360E-01 2.500185966E-01 5.000000000E+01
 8.708885312E-01 2.533876002E-01 5.000000000E+01
 8.722240329E-01 2.567566037E-01 5.000000000E+01
 8.735553026E-01 2.601256073E-01 5.000000000E+01
 8.748825788E-01 2.634946108E-01 5.000000000E+01
 8.762057424E-01 2.668636143E-01 5.000000000E+01
 8.775248528E-01 2.702326179E-01 5.000000000E+01
 8.787946701E-01 2.736016214E-01 5.000000000E+01
 8.800269961E-01 2.769706249E-01 5.000000000E+01
 8.812557459E-01 2.803396285E-01 5.000000000E+01
 8.824808598E-01 2.837086320E-01 5.000000000E+01
 8.837025166E-01 2.870776355E-01 5.000000000E+01
 8.849205971E-01 2.904466391E-01 5.000000000E+01
 8.861352205E-01 2.938156426E-01 5.000000000E+01
 8.873463273E-01 2.971846461E-01 5.000000000E+01
 8.885493279E-01 3.005536497E-01 5.000000000E+01
 8.896830082E-01 3.039226532E-01 5.000000000E+01
 8.908135295E-01 3.072916567E-01 5.000000000E+01
 8.919410110E-01 3.106606603E-01 5.000000000E+01
 8.930653930E-01 3.140296638E-01 5.000000000E+01
 8.941867948E-01 3.173986673E-01 5.000000000E+01
 8.953050375E-01 3.207676709E-01 5.000000000E+01
 8.964203596E-01 3.241366744E-01 5.000000000E+01
 8.975325823E-01 3.275056779E-01 5.000000000E+01
 8.986418843E-01 3.308746815E-01 5.000000000E+01
 8.997060061E-01 3.342436850E-01 5.000000000E+01
 9.007459283E-01 3.376126885E-01 5.000000000E+01
 9.017832279E-01 3.409816921E-01 5.000000000E+01
 9.028178453E-01 3.443506956E-01 5.000000000E+01
 9.038497806E-01 3.477196991E-01 5.000000000E+01
 9.048790932E-01 3.510887027E-01 5.000000000E+01
 9.059059024E-01 3.544577062E-01 5.000000000E+01
 9.069299698E-01 3.578267097E-01 5.000000000E+01
 9.079513550E-01 3.611957133E-01 5.000000000E+01
 9.089702368E-01 3.645647168E-01 5.000000000E+01
 9.099709392E-01 3.679337204E-01 5.000000000E+01
 9.109265804E-01 3.713027239E-01 5.000000000E+01
 9.118798971E-01 3.746717274E-01 5.000000000E+01
 9.128308892E-01 3.780407310E-01 5.000000000E+01
 9.137796164E-01 3.814097345E-01 5.000000000E+01
 9.147260189E-01 3.847787380E-01 5.000000000E+01
 9.156702161E-01 3.881477416E-01 5.000000000E+01
 9.166120887E-01 3.915167451E-01 5.000000000E+01
 9.175516963E-01 3.948857486E-01 5.000000000E+01
 9.184890985E-01 3.982547522E-01 5.000000000E+01
 9.194241762E-01 4.016237557E-01 5.000000000E+01
 9.203571081E-01 4.049927592E-01 5.000000000E+01
 9.212452173E-01 4.083617628E-01 5.000000000E+01
 9.221192598E-01 4.117307663E-01 5.000000000E+01
 9.229912758E-01 4.150997698E-01 5.000000000E+01
 9.238613248E-01 4.184687734E-01 5.000000000E+01
 9.247295260E-01 4.218377769E-01 5.000000000E+01
 9.255956411E-01 4.252067804E-01 5.000000000E+01
 9.264598489E-01 4.285757840E-01 5.000000000E+01
 9.273220897E-01 4.319447875E-01 5.000000000E+01
 9.281823635E-01 4.353137910E-01 5.000000000E+01
 9.290406704E-01 4.386827946E-01 5.000000000E+01
 9.298971295E-01 4.420517981E-01 5.000000000E+01
 9.307516217E-01 4.454208016E-01 5.000000000E+01
 9.315999746E-01 4.487898052E-01 5.000000000E+01
 9.323975444E-01 4.521588087E-01 5.000000000E+01
 9.331933856E-01 4.555278122E-01 5.000000000E+01
 9.339875579E-01 4.588968158E-01 5.000000000E+01
 9.347800016E-01 4.622658193E-01 5.000000000E+01
 9.355707765E-01 4.656348228E-01 5.000000000E+01
 9.363599420E-01 4.690038264E-01 5.000000000E+01
 9.371473789E-01 4.723728299E-01 5.000000000E+01
 9.379331470E-01 4.757418334E-01 5.000000000E+01
 9.387173057E-01 4.791108370E-01 5.000000000E+01
 9.394997954E-01 4.824798405E-01 5.000000000E+01
 9.402806163E-01 4.858488441E-01 5.000000000E+01
 9.410598278E-01 4.892178476E-01 5.000000000E+01
 9.418373704E-01 4.925868511E-01 5.000000000E+01
 9.426109791E-01 4.959558547E-01 5.000000000E+01
 9.433310628E-01 4.993248582E-01 5.000000000E+01
 9.440497160E-01 5.026938915E-01 5.000000000E+01
 9.447669387E-01 5.060628653E-01 5.000000000E+01
 9.454827309E-01 5.094318986E-01 5.000000000E+01
 9.461970925E-01 5.128008723E-01 5.000000000E+01
 9.469100833E-01 5.161699057E-01 5.000000000E+01
 9.476217031E-01 5.195388794E-01 5.000000000E+01
 9.483318925E-01 5.229079127E-01 5.000000000E+01
 9.490407109E-01 5.262768865E-01 5.000000000E+01
 9.497480989E-01 5.296459198E-01 5.000000000E+01
 9.504541159E-01 5.330148935E-01 5.000000000E+01
 9.511588216E-01 5.363839269E-01 5.000000000E+01
 9.518620968E-01 5.397529006E-01 5.000000000E+01
 9.525640011E-01 5.431219339E-01 5.000000000E+01
 9.532645345E-01 5.464909077E-01 5.000000000E+01
 9.539330602E-01 5.498599410E-01 5.000000000E+01
 9.545725584E-01 5.532289147E-01 5.000000000E+01
 9.552109241E-01 5.565979481E-01 5.000000000E+01
 9.558481574E-01 5.599669218E-01 5.000000000E+01
 9.564842582E-01 5.633359551E-01 5.000000000E+01
 9.571191669E-01 5.667049289E-01 5.000000000E+01
 9.577529430E-01 5.700739622E-01 5.000000000E+01
 9.583855867E-01 5.734429359E-01 5.000000000E+01
 9.590170979E-01 5.768119693E-01 5.000000000E+01
 9.596474767E-01 5.801809430E-01 5.000000000E+01
 9.602767825E-01 5.835499763E-01 5.000000000E+01
 9.609049559E-01 5.869189501E-01 5.000000000E+01
 9.615319371E-01 5.902879834E-01 5.000000000E+01
 9.621578455E-01 5.936569571E-01 5.000000000E+01
 9.627826214E-01 5.970259905E-01 5.000000000E+01
 9.634063840E-01 6.003949642E-01 5.000000000E+01
 9.640288949E-01 6.037639976E-01 5.000000000E+01
 9.646255970E-01 6.071329713E-01 5.000000000E+01
 9.651796222E-01 6.105020046E-01 5.000000000E+01
 9.657327533E-01 6.138709784E-01 5.000000000E+01
 9.662850499E-01 6.172400117E-01 5.000000000E+01
 9.668363929E-01 6.206089854E-01 5.000000000E+01
 9.673869610E-01 6.239780188E-01 5.000000000E+01
 9.679365754E-01 6.273469925E-01 5.000000000E+01
 9.684853554E-01 6.307160258E-01 5.000000000E+01
 9.690332413E-01 6.340849996E-01 5.000000000E+01
 9.695802331E-01 6.374540329E-01 5.000000000E+01
 9.701263309E-01 6.408230066E-01 5.000000000E+01
 9.706716537E-01 6.441920400E-01 5.000000000E+01
 9.712160230E-01 6.475610137E-01 5.000000000E+01
 9.717595577E-01 6.509300470E-01 5.000000000E+01
 9.723023176E-01 6.542990208E-01 5.000000000E+01
 9.728441238E-01 6.576680541E-01 5.000000000E+01
 9.733850956E-01 6.610370278E-01 5.000000000E+01
 9.739251733E-01 6.644060612E-01 5.000000000E+01
 9.744644761E-01 6.677750349E-01 5.000000000E+01
 9.749701023E-01 6.711440682E-01 5.000000000E+01
 9.754289389E-01 6.745130420E-01 5.000000000E+01
 9.758871198E-01 6.778820753E-01 5.000000000E+01
 9.763447642E-01 6.812510490E-01 5.000000000E+01
 9.768016338E-01 6.846200824E-01 5.000000000E+01
 9.772580266E-01 6.879890561E-01 5.000000000E+01
 9.777137041E-01 6.913580894E-01 5.000000000E+01
 9.781687856E-01 6.947270632E-01 5.000000000E+01
 9.786232710E-01 6.980960965E-01 5.000000000E+01
 9.790771604E-01 7.014650702E-01 5.000000000E+01
 9.795303941E-01 7.048341036E-01 5.000000000E+01
 9.799830317E-01 7.082030773E-01 5.000000000E+01
 9.804350734E-01 7.115721107E-01 5.000000000E+01
 9.808864594E-01 7.149410844E-01 5.000000000E+01
 9.813373089E-01 7.183101177E-01 5.000000000E+01
 9.817875028E-01 7.216790915E-01 5.000000000E+01
 9.822371006E-01 7.250481248E-01 5.000000000E+01
 9.826860428E-01 7.284170985E-01 5.000000000E+01
 9.831344485E-01 7.317861319E-01 5.000000000E+01
 9.835822582E-01 7.351551056E-01 5.000000000E+01
 9.840294719E-01 7.385241389E-01 5.000000000E+01
 9.844318628E-01 7.418931127E-01 5.000000000E+01
 9.847816229E-01 7.452621460E-01 5.000000000E+01
 9.851309657E-01 7.486311197E-01 5.000000000E+01
 9.854800105E-01 7.520001531E-01 5.000000000E+01
 9.858286381E-01 7.553691268E-01 5.000000000E+01
 9.861768484E-01 7.587381601E-01 5.000000000E+01
 9.865247607E-01 7.621071339E-01 5.000000000E+01
 9.868722558E-01 7.654761672E-01 5.000000000E+01
 9.872194529E-01 7.688451409E-01 5.000000000E+01
 9.875662327E-01 7.722141743E-01 5.000000000E+01
 9.879126549E-01 7.755831480E-01 5.000000000E+01
 9.882587790E-01 7.789521813E-01 5.000000000E+01
 9.886043668E-01 7.823211551E-01 5.000000000E+01
 9.889497757E-01 7.856901884E-01 5.000000000E+01
 9.892947674E-01 7.890591621E-01 5.000000000E+01
 9.896393418E-01 7.924281955E-01 5.000000000E+01
 9.899836183E-01 7.957971692E-01 5.000000000E+01
 9.903274179E-01 7.991662025E-01 5.000000000E+01
 9.906709790E-01 8.025351763E-01 5.000000000E+01
 9.910141826E-01 8.059042096E-01 5.000000000E+01
 9.913569689E-01 8.092731833E-01 5.000000000E+01
 9.916993976E-01 8.126422167E-01 5.000000000E+01
 9.920414686E-01 8.160111904E-01 5.000000000E+01
 9.923481941E-01 8.193802238E-01 5.000000000E+01
 9.925708771E-01 8.227491975E-01 5.000000000E+01
 9.927933216E-01 8.261182308E-01 5.000000000E+01
 9.930156469E-01 8.294872046E-01 5.000000000E+01
 9.932377934E-01 8.328562379E-01 5.000000000E+01
 9.934598207E-01 8.362252116E-01 5.000000000E+01
 9.936817288E-01 8.395942450E-01 5.000000000E+01
 9.939033985E-01 8.429632187E-01 5.000000000E+01
 9.941249490E-01 8.463322520E-01 5.000000000E+01
 9.943463206E-01 8.497012258E-01 5.000000000E+01
 9.945676923E-01 8.530702591E-01 5.000000000E+01
 9.947887659E-01 8.564392328E-01 5.000000000E+01
 9.950097203E-01 8.598082662E-01 5.000000000E+01
 9.952304959E-01 8.631772399E-01 5.000000000E+01
 9.954511523E-01 8.665462732E-01 5.000000000E+01
 9.956716299E-01 8.699153066E-01 5.000000000E+01
 9.958919883E-01 8.732842803E-01 5.000000000E+01
 9.961122274E-01 8.766533136E-01 5.000000000E+01
 9.963322878E-01 8.800222874E-01 5.000000000E+01
 9.965521693E-01 8.833913207E-01 5.000000000E+01
 9.967719316E-01 8.867602944E-01 5.000000000E+01
 9.969915152E-01 8.901293278E-01 5.000000000E+01
 9.972109199E-01 8.934983015E-01 5.000000000E+01
 9.974302649E-01 8.968673348E-01 5.000000000E+01
 9.976493716E-01 9.002363086E-01 5.000000000E+01
 9.978684783E-01 9.036053419E-01 5.000000000E+01
 9.979878068E-01 9.069743156E-01 5.000000000E+01
 9.980626106E-01 9.103433490E-01 5.000000000E+01
 9.981373549E-01 9.137123227E-01 5.000000000E+01
 9.982120395E-01 9.170813560E-01 5.000000000E+01
 9.982867837E-01 9.204503298E-01 5.000000000E+01
 9.983614087E-01 9.238193631E-01 5.000000000E+01
 9.984360933E-01 9.271883368E-01 5.000000000E+01
 9.985107183E-01 9.305573702E-01 5.000000000E+01
 9.985853434E-01 9.339263439E-01 5.000000000E+01
 9.986599684E-01 9.372953773E-01 5.000000000E+01
 9.987345934E-01 9.406643510E-01 5.000000000E+01
 9.988091588E-01 9.440333843E-01 5.000000000E+01
 9.988837242E-01 9.474023581E-01 5.000000000E+01
 9.989582300E-01 9.507713914E-01 5.000000000E+01
 9.990327358E-01 9.541403651E-01 5.000000000E+01
 9.991073012E-01 9.575093985E-01 5.000000000E+01
 9.991817474E-01 9.608783722E-01 5.000000000E+01
 9.992561936E-01 9.642474055E-01 5.000000000E+01
 9.993306994E-01 9.676163793E-01 5.000000000E+01
 9.994051456E-01 9.709854126E-01 5.000000000E+01
 9.994795918E-01 9.743543863E-01 5.000000000E+01
 9.995539188E-01 9.777234197E-01 5.000000000E+01
 9.996283650E-01 9.810923934E-01 5.000000000E+01
 9.997026920E-01 9.844614267E-01 5.000000000E+01
 9.997770190E-01 9.878304005E-01 5.000000000E+01
 9.998514056E-01 9.911994338E-01 5.000000000E+01
 9.999257326E-01 9.945684075E-01 5.000000000E+01
 1.000000000E+00 9.979374409E-01 5.000000000E+01
