# CFL3D result at x/D=40, extracted along diagonal and vertical lines, SSG/LRR-RSM-w2012 model
VARIABLES = "u/u_CL","2z/D","x/D"
ZONE T="cfl3d diag 40"
 5.489459727E-03 2.878091764E-03 4.000000000E+01
 1.223695651E-01 6.210073363E-03 4.000000000E+01
 2.362802476E-01 9.542055428E-03 4.000000000E+01
 3.002507389E-01 1.287403703E-02 4.000000000E+01
 3.427164257E-01 1.620601863E-02 4.000000000E+01
 3.745287657E-01 1.953800023E-02 4.000000000E+01
 4.001574814E-01 2.286998183E-02 4.000000000E+01
 4.217866957E-01 2.620196342E-02 4.000000000E+01
 4.405387938E-01 2.953394502E-02 4.000000000E+01
 4.570080042E-01 3.286592662E-02 4.000000000E+01
 4.717681706E-01 3.619790822E-02 4.000000000E+01
 4.851495028E-01 3.952988982E-02 4.000000000E+01
 4.974601269E-01 4.286187142E-02 4.000000000E+01
 5.087661147E-01 4.619385302E-02 4.000000000E+01
 5.193336606E-01 4.952583462E-02 4.000000000E+01
 5.291264653E-01 5.285781994E-02 4.000000000E+01
 5.383879542E-01 5.618980154E-02 4.000000000E+01
 5.470626950E-01 5.952178314E-02 4.000000000E+01
 5.552927852E-01 6.285376102E-02 4.000000000E+01
 5.630546212E-01 6.618574262E-02 4.000000000E+01
 5.704251528E-01 6.951772422E-02 4.000000000E+01
 5.774387121E-01 7.284970582E-02 4.000000000E+01
 5.841747522E-01 7.618168741E-02 4.000000000E+01
 5.905023217E-01 7.951366901E-02 4.000000000E+01
 5.967037082E-01 8.284565061E-02 4.000000000E+01
 6.025065184E-01 8.617763221E-02 4.000000000E+01
 6.082332134E-01 8.950961381E-02 4.000000000E+01
 6.136747003E-01 9.284160286E-02 4.000000000E+01
 6.188208461E-01 9.617358446E-02 4.000000000E+01
 6.239925027E-01 9.950556606E-02 4.000000000E+01
 6.288305521E-01 1.028375477E-01 4.000000000E+01
 6.334712505E-01 1.061695293E-01 4.000000000E+01
 6.381393075E-01 1.095015109E-01 4.000000000E+01
 6.425708532E-01 1.128334925E-01 4.000000000E+01
 6.467619538E-01 1.161654741E-01 4.000000000E+01
 6.509684920E-01 1.194974557E-01 4.000000000E+01
 6.550859213E-01 1.228294373E-01 4.000000000E+01
 6.589517593E-01 1.261614114E-01 4.000000000E+01
 6.627224088E-01 1.294934005E-01 4.000000000E+01
 6.665217280E-01 1.328253746E-01 4.000000000E+01
 6.702085137E-01 1.361573637E-01 4.000000000E+01
 6.736612320E-01 1.394893378E-01 4.000000000E+01
 6.770551205E-01 1.428213269E-01 4.000000000E+01
 6.804816723E-01 1.461533010E-01 4.000000000E+01
 6.838455200E-01 1.494852901E-01 4.000000000E+01
 6.869991422E-01 1.528172642E-01 4.000000000E+01
 6.900628805E-01 1.561492532E-01 4.000000000E+01
 6.931340694E-01 1.594812274E-01 4.000000000E+01
 6.962082386E-01 1.628132164E-01 4.000000000E+01
 6.991927028E-01 1.661451906E-01 4.000000000E+01
 7.019841671E-01 1.694771796E-01 4.000000000E+01
 7.047363520E-01 1.728091538E-01 4.000000000E+01
 7.074999809E-01 1.761411428E-01 4.000000000E+01
 7.102662325E-01 1.794731319E-01 4.000000000E+01
 7.129738331E-01 1.828051060E-01 4.000000000E+01
 7.155131698E-01 1.861370951E-01 4.000000000E+01
 7.179917693E-01 1.894690692E-01 4.000000000E+01
 7.204591632E-01 1.928010583E-01 4.000000000E+01
 7.229549885E-01 1.961330324E-01 4.000000000E+01
 7.254342437E-01 1.994650215E-01 4.000000000E+01
 7.278412580E-01 2.027969956E-01 4.000000000E+01
 7.300873399E-01 2.061289847E-01 4.000000000E+01
 7.323110700E-01 2.094609588E-01 4.000000000E+01
 7.345232368E-01 2.127929479E-01 4.000000000E+01
 7.367676497E-01 2.161249220E-01 4.000000000E+01
 7.389979959E-01 2.194569111E-01 4.000000000E+01
 7.411972880E-01 2.227888852E-01 4.000000000E+01
 7.432538867E-01 2.261208743E-01 4.000000000E+01
 7.452563643E-01 2.294528484E-01 4.000000000E+01
 7.472472787E-01 2.327848375E-01 4.000000000E+01
 7.492434382E-01 2.361168116E-01 4.000000000E+01
 7.512587309E-01 2.394488007E-01 4.000000000E+01
 7.532622218E-01 2.427807748E-01 4.000000000E+01
 7.552425265E-01 2.461127639E-01 4.000000000E+01
 7.570927739E-01 2.494447380E-01 4.000000000E+01
 7.588945031E-01 2.527767122E-01 4.000000000E+01
 7.606863976E-01 2.561087012E-01 4.000000000E+01
 7.624686956E-01 2.594406903E-01 4.000000000E+01
 7.642876506E-01 2.627726793E-01 4.000000000E+01
 7.660990357E-01 2.661046386E-01 4.000000000E+01
 7.679004073E-01 2.694366276E-01 4.000000000E+01
 7.696622014E-01 2.727686167E-01 4.000000000E+01
 7.713130713E-01 2.761006057E-01 4.000000000E+01
 7.729368210E-01 2.794325650E-01 4.000000000E+01
 7.745522857E-01 2.827645540E-01 4.000000000E+01
 7.761596441E-01 2.860965431E-01 4.000000000E+01
 7.777990699E-01 2.894285321E-01 4.000000000E+01
 7.794415951E-01 2.927604914E-01 4.000000000E+01
 7.810757756E-01 2.960924804E-01 4.000000000E+01
 7.827015519E-01 2.994244695E-01 4.000000000E+01
 7.842540145E-01 3.027564585E-01 4.000000000E+01
 7.857307196E-01 3.060884178E-01 4.000000000E+01
 7.872002721E-01 3.094204068E-01 4.000000000E+01
 7.886629701E-01 3.127523959E-01 4.000000000E+01
 7.901185751E-01 3.160843849E-01 4.000000000E+01
 7.916095853E-01 3.194163442E-01 4.000000000E+01
 7.931087613E-01 3.227483332E-01 4.000000000E+01
 7.946006060E-01 3.260803223E-01 4.000000000E+01
 7.960852981E-01 3.294123113E-01 4.000000000E+01
 7.975430489E-01 3.327442706E-01 4.000000000E+01
 7.989145517E-01 3.360762596E-01 4.000000000E+01
 8.002601266E-01 3.394082487E-01 4.000000000E+01
 8.015996218E-01 3.427402377E-01 4.000000000E+01
 8.029331565E-01 3.460722268E-01 4.000000000E+01
 8.042607307E-01 3.494041860E-01 4.000000000E+01
 8.056317568E-01 3.527361751E-01 4.000000000E+01
 8.070138097E-01 3.560681641E-01 4.000000000E+01
 8.083896041E-01 3.594001532E-01 4.000000000E+01
 8.097589612E-01 3.627321124E-01 4.000000000E+01
 8.111221790E-01 3.660641015E-01 4.000000000E+01
 8.124241233E-01 3.693960905E-01 4.000000000E+01
 8.136680722E-01 3.727280796E-01 4.000000000E+01
 8.149065971E-01 3.760600388E-01 4.000000000E+01
 8.161401153E-01 3.793920279E-01 4.000000000E+01
 8.173684478E-01 3.827240169E-01 4.000000000E+01
 8.185914755E-01 3.860560060E-01 4.000000000E+01
 8.198660612E-01 3.893879652E-01 4.000000000E+01
 8.211598396E-01 3.927199543E-01 4.000000000E+01
 8.224479556E-01 3.960519433E-01 4.000000000E+01
 8.237304688E-01 3.993839324E-01 4.000000000E+01
 8.250075579E-01 4.027158916E-01 4.000000000E+01
 8.262699842E-01 4.060478806E-01 4.000000000E+01
 8.274537325E-01 4.093798697E-01 4.000000000E+01
 8.286161423E-01 4.127118587E-01 4.000000000E+01
 8.297740817E-01 4.160438180E-01 4.000000000E+01
 8.309273124E-01 4.193758070E-01 4.000000000E+01
 8.320759535E-01 4.227077961E-01 4.000000000E+01
 8.332201838E-01 4.260397851E-01 4.000000000E+01
 8.344112635E-01 4.293717444E-01 4.000000000E+01
 8.356519938E-01 4.327037334E-01 4.000000000E+01
 8.368875980E-01 4.360357225E-01 4.000000000E+01
 8.381179571E-01 4.393677115E-01 4.000000000E+01
 8.393431306E-01 4.426996708E-01 4.000000000E+01
 8.405633569E-01 4.460316598E-01 4.000000000E+01
 8.417573571E-01 4.493636489E-01 4.000000000E+01
 8.428825140E-01 4.526956379E-01 4.000000000E+01
 8.439936042E-01 4.560275972E-01 4.000000000E+01
 8.451004028E-01 4.593595862E-01 4.000000000E+01
 8.462031484E-01 4.626915753E-01 4.000000000E+01
 8.473014832E-01 4.660235643E-01 4.000000000E+01
 8.483955860E-01 4.693555236E-01 4.000000000E+01
 8.494855762E-01 4.726875126E-01 4.000000000E+01
 8.507181406E-01 4.760195017E-01 4.000000000E+01
 8.519473076E-01 4.793514907E-01 4.000000000E+01
 8.531713486E-01 4.826834500E-01 4.000000000E+01
 8.543903232E-01 4.860154390E-01 4.000000000E+01
 8.556044102E-01 4.893474281E-01 4.000000000E+01
 8.568134308E-01 4.926794171E-01 4.000000000E+01
 8.580093384E-01 4.960114062E-01 4.000000000E+01
 8.591189981E-01 4.993433654E-01 4.000000000E+01
 8.602119684E-01 5.026753545E-01 4.000000000E+01
 8.613006473E-01 5.060073137E-01 4.000000000E+01
 8.623853326E-01 5.093393326E-01 4.000000000E+01
 8.634660244E-01 5.126712918E-01 4.000000000E+01
 8.645424843E-01 5.160033107E-01 4.000000000E+01
 8.656150103E-01 5.193352699E-01 4.000000000E+01
 8.666986823E-01 5.226672292E-01 4.000000000E+01
 8.679754734E-01 5.259992480E-01 4.000000000E+01
 8.692469001E-01 5.293312073E-01 4.000000000E+01
 8.705131412E-01 5.326631665E-01 4.000000000E+01
 8.717741966E-01 5.359951854E-01 4.000000000E+01
 8.730299473E-01 5.393271446E-01 4.000000000E+01
 8.742806911E-01 5.426591635E-01 4.000000000E+01
 8.755261898E-01 5.459911227E-01 4.000000000E+01
 8.767303824E-01 5.493230820E-01 4.000000000E+01
 8.778358102E-01 5.526551008E-01 4.000000000E+01
 8.789368272E-01 5.559870601E-01 4.000000000E+01
 8.800337315E-01 5.593190193E-01 4.000000000E+01
 8.811265826E-01 5.626510382E-01 4.000000000E+01
 8.822150826E-01 5.659829974E-01 4.000000000E+01
 8.832994699E-01 5.693150163E-01 4.000000000E+01
 8.843798041E-01 5.726469755E-01 4.000000000E+01
 8.854560256E-01 5.759789348E-01 4.000000000E+01
 8.866901994E-01 5.793109536E-01 4.000000000E+01
 8.880354166E-01 5.826429129E-01 4.000000000E+01
 8.893749118E-01 5.859748721E-01 4.000000000E+01
 8.907085061E-01 5.893068910E-01 4.000000000E+01
 8.920365572E-01 5.926388502E-01 4.000000000E+01
 8.933587670E-01 5.959708691E-01 4.000000000E+01
 8.946752548E-01 5.993028283E-01 4.000000000E+01
 8.959861994E-01 6.026347876E-01 4.000000000E+01
 8.972853422E-01 6.059668064E-01 4.000000000E+01
 8.984175920E-01 6.092987657E-01 4.000000000E+01
 8.995270729E-01 6.126307249E-01 4.000000000E+01
 9.006319046E-01 6.159627438E-01 4.000000000E+01
 9.017323256E-01 6.192947030E-01 4.000000000E+01
 9.028282166E-01 6.226267219E-01 4.000000000E+01
 9.039196968E-01 6.259586811E-01 4.000000000E+01
 9.050067067E-01 6.292906404E-01 4.000000000E+01
 9.060893655E-01 6.326226592E-01 4.000000000E+01
 9.071674943E-01 6.359546185E-01 4.000000000E+01
 9.083473682E-01 6.392865777E-01 4.000000000E+01
 9.097148180E-01 6.426185966E-01 4.000000000E+01
 9.110755920E-01 6.459505558E-01 4.000000000E+01
 9.124301076E-01 6.492825747E-01 4.000000000E+01
 9.137781262E-01 6.526145339E-01 4.000000000E+01
 9.151197076E-01 6.559464931E-01 4.000000000E+01
 9.164550304E-01 6.592785120E-01 4.000000000E+01
 9.177839756E-01 6.626104712E-01 4.000000000E+01
 9.191067219E-01 6.659424901E-01 4.000000000E+01
 9.204232693E-01 6.692744493E-01 4.000000000E+01
 9.215638638E-01 6.726064086E-01 4.000000000E+01
 9.226521850E-01 6.759384274E-01 4.000000000E+01
 9.237356186E-01 6.792703867E-01 4.000000000E+01
 9.248139858E-01 6.826023459E-01 4.000000000E+01
 9.258875847E-01 6.859343648E-01 4.000000000E+01
 9.269562960E-01 6.892663240E-01 4.000000000E+01
 9.280201793E-01 6.925983429E-01 4.000000000E+01
 9.290792346E-01 6.959303021E-01 4.000000000E+01
 9.301335216E-01 6.992622614E-01 4.000000000E+01
 9.311830401E-01 7.025942802E-01 4.000000000E+01
 9.322828054E-01 7.059262395E-01 4.000000000E+01
 9.335874915E-01 7.092581987E-01 4.000000000E+01
 9.348851442E-01 7.125902176E-01 4.000000000E+01
 9.361758232E-01 7.159221768E-01 4.000000000E+01
 9.374595284E-01 7.192541957E-01 4.000000000E+01
 9.387362599E-01 7.225861549E-01 4.000000000E+01
 9.400062561E-01 7.259181142E-01 4.000000000E+01
 9.412694573E-01 7.292501330E-01 4.000000000E+01
 9.425258636E-01 7.325820923E-01 4.000000000E+01
 9.437757134E-01 7.359140515E-01 4.000000000E+01
 9.450187683E-01 7.392460704E-01 4.000000000E+01
 9.461258054E-01 7.425780296E-01 4.000000000E+01
 9.471498728E-01 7.459100485E-01 4.000000000E+01
 9.481686354E-01 7.492420077E-01 4.000000000E+01
 9.491822720E-01 7.525739670E-01 4.000000000E+01
 9.501908422E-01 7.559059858E-01 4.000000000E+01
 9.511941671E-01 7.592379451E-01 4.000000000E+01
 9.521923661E-01 7.625699043E-01 4.000000000E+01
 9.531857371E-01 7.659019232E-01 4.000000000E+01
 9.541739225E-01 7.692338824E-01 4.000000000E+01
 9.551572204E-01 7.725659013E-01 4.000000000E+01
 9.561355710E-01 7.758978605E-01 4.000000000E+01
 9.571091533E-01 7.792298198E-01 4.000000000E+01
 9.582771659E-01 7.825618386E-01 4.000000000E+01
 9.594516754E-01 7.858937979E-01 4.000000000E+01
 9.606190324E-01 7.892257571E-01 4.000000000E+01
 9.617794156E-01 7.925577760E-01 4.000000000E+01
 9.629327655E-01 7.958897352E-01 4.000000000E+01
 9.640791416E-01 7.992217541E-01 4.000000000E+01
 9.652186036E-01 8.025537133E-01 4.000000000E+01
 9.663512707E-01 8.058856726E-01 4.000000000E+01
 9.674770832E-01 8.092176914E-01 4.000000000E+01
 9.685962200E-01 8.125496507E-01 4.000000000E+01
 9.697087407E-01 8.158816099E-01 4.000000000E+01
 9.707361460E-01 8.192136288E-01 4.000000000E+01
 9.715143442E-01 8.225455880E-01 4.000000000E+01
 9.722884893E-01 8.258776069E-01 4.000000000E+01
 9.730584025E-01 8.292095661E-01 4.000000000E+01
 9.738242626E-01 8.325415254E-01 4.000000000E+01
 9.745863080E-01 8.358735442E-01 4.000000000E+01
 9.753441811E-01 8.392055035E-01 4.000000000E+01
 9.760982990E-01 8.425375223E-01 4.000000000E+01
 9.768486023E-01 8.458694816E-01 4.000000000E+01
 9.775950313E-01 8.492014408E-01 4.000000000E+01
 9.783376455E-01 8.525334597E-01 4.000000000E+01
 9.790765643E-01 8.558654189E-01 4.000000000E+01
 9.798116088E-01 8.591973782E-01 4.000000000E+01
 9.805920124E-01 8.625293970E-01 4.000000000E+01
 9.814721346E-01 8.658613563E-01 4.000000000E+01
 9.823467731E-01 8.691933751E-01 4.000000000E+01
 9.832162261E-01 8.725253344E-01 4.000000000E+01
 9.840802550E-01 8.758572936E-01 4.000000000E+01
 9.849390984E-01 8.791893125E-01 4.000000000E+01
 9.857927561E-01 8.825212717E-01 4.000000000E+01
 9.866413474E-01 8.858532310E-01 4.000000000E+01
 9.874848127E-01 8.891852498E-01 4.000000000E+01
 9.883231521E-01 8.925172091E-01 4.000000000E+01
 9.891565442E-01 8.958492279E-01 4.000000000E+01
 9.899849892E-01 8.991811872E-01 4.000000000E+01
 9.908084273E-01 9.025131464E-01 4.000000000E+01
 9.914254546E-01 9.058451653E-01 4.000000000E+01
 9.917260408E-01 9.091771245E-01 4.000000000E+01
 9.920259714E-01 9.125090837E-01 4.000000000E+01
 9.923250079E-01 9.158411026E-01 4.000000000E+01
 9.926233292E-01 9.191730618E-01 4.000000000E+01
 9.929206967E-01 9.225050807E-01 4.000000000E+01
 9.932174683E-01 9.258370399E-01 4.000000000E+01
 9.935134053E-01 9.291689992E-01 4.000000000E+01
 9.938085675E-01 9.325010180E-01 4.000000000E+01
 9.941029549E-01 9.358329773E-01 4.000000000E+01
 9.943966269E-01 9.391649365E-01 4.000000000E+01
 9.946894646E-01 9.424969554E-01 4.000000000E+01
 9.949815273E-01 9.458289146E-01 4.000000000E+01
 9.952728152E-01 9.491609335E-01 4.000000000E+01
 9.955670238E-01 9.524928927E-01 4.000000000E+01
 9.958895445E-01 9.558248520E-01 4.000000000E+01
 9.962111712E-01 9.591568708E-01 4.000000000E+01
 9.965317845E-01 9.624888301E-01 4.000000000E+01
 9.968515038E-01 9.658207893E-01 4.000000000E+01
 9.971703887E-01 9.691528082E-01 4.000000000E+01
 9.974883795E-01 9.724847674E-01 4.000000000E+01
 9.978053570E-01 9.758167863E-01 4.000000000E+01
 9.981215596E-01 9.791487455E-01 4.000000000E+01
 9.984368682E-01 9.824807048E-01 4.000000000E+01
 9.987513423E-01 9.858127236E-01 4.000000000E+01
 9.990648031E-01 9.891446829E-01 4.000000000E+01
 9.993774891E-01 9.924767017E-01 4.000000000E+01
 9.996891022E-01 9.958086610E-01 4.000000000E+01
 1.000000000E+00 9.991406202E-01 4.000000000E+01
ZONE T="cfl3d vert 40"
 7.377783954E-02 7.123036776E-04 4.000000000E+01
 3.259856105E-01 4.081307445E-03 4.000000000E+01
 4.138968587E-01 7.450310979E-03 4.000000000E+01
 4.585097730E-01 1.081931498E-02 4.000000000E+01
 4.877901673E-01 1.418831851E-02 4.000000000E+01
 5.096418858E-01 1.755732298E-02 4.000000000E+01
 5.269520879E-01 2.092632651E-02 4.000000000E+01
 5.414872169E-01 2.429533005E-02 4.000000000E+01
 5.537474751E-01 2.766433358E-02 4.000000000E+01
 5.645411015E-01 3.103333712E-02 4.000000000E+01
 5.741642118E-01 3.440234065E-02 4.000000000E+01
 5.828533173E-01 3.777134418E-02 4.000000000E+01
 5.907977819E-01 4.114034772E-02 4.000000000E+01
 5.981508493E-01 4.450935125E-02 4.000000000E+01
 6.048290730E-01 4.787835479E-02 4.000000000E+01
 6.111162901E-01 5.124736205E-02 4.000000000E+01
 6.171035767E-01 5.461636558E-02 4.000000000E+01
 6.225956082E-01 5.798536912E-02 4.000000000E+01
 6.278927922E-01 6.135437265E-02 4.000000000E+01
 6.328722239E-01 6.472337246E-02 4.000000000E+01
 6.376433969E-01 6.809237599E-02 4.000000000E+01
 6.421734095E-01 7.146137953E-02 4.000000000E+01
 6.465495825E-01 7.483038306E-02 4.000000000E+01
 6.506835818E-01 7.819939405E-02 4.000000000E+01
 6.547701359E-01 8.156839758E-02 4.000000000E+01
 6.585534215E-01 8.493740112E-02 4.000000000E+01
 6.623061895E-01 8.830640465E-02 4.000000000E+01
 6.659078002E-01 9.167540818E-02 4.000000000E+01
 6.693533659E-01 9.504441172E-02 4.000000000E+01
 6.727730036E-01 9.841341525E-02 4.000000000E+01
 6.760215163E-01 1.017824188E-01 4.000000000E+01
 6.791715026E-01 1.051514223E-01 4.000000000E+01
 6.822992563E-01 1.085204259E-01 4.000000000E+01
 6.853005290E-01 1.118894294E-01 4.000000000E+01
 6.881913543E-01 1.152584329E-01 4.000000000E+01
 6.910628080E-01 1.186274365E-01 4.000000000E+01
 6.939011812E-01 1.219964400E-01 4.000000000E+01
 6.965644956E-01 1.253654361E-01 4.000000000E+01
 6.992110014E-01 1.287344396E-01 4.000000000E+01
 7.018410563E-01 1.321034580E-01 4.000000000E+01
 7.044148445E-01 1.354724616E-01 4.000000000E+01
 7.068640590E-01 1.388414651E-01 4.000000000E+01
 7.092985511E-01 1.422104686E-01 4.000000000E+01
 7.117186785E-01 1.455794722E-01 4.000000000E+01
 7.141183615E-01 1.489484757E-01 4.000000000E+01
 7.163811326E-01 1.523174793E-01 4.000000000E+01
 7.186310291E-01 1.556864828E-01 4.000000000E+01
 7.208683491E-01 1.590554863E-01 4.000000000E+01
 7.230930924E-01 1.624244899E-01 4.000000000E+01
 7.252624035E-01 1.657934934E-01 4.000000000E+01
 7.273513079E-01 1.691624969E-01 4.000000000E+01
 7.294288874E-01 1.725315005E-01 4.000000000E+01
 7.314955592E-01 1.759005040E-01 4.000000000E+01
 7.335511446E-01 1.792695075E-01 4.000000000E+01
 7.355737090E-01 1.826385111E-01 4.000000000E+01
 7.375121117E-01 1.860075146E-01 4.000000000E+01
 7.394406796E-01 1.893765181E-01 4.000000000E+01
 7.413593531E-01 1.927455217E-01 4.000000000E+01
 7.432684302E-01 1.961145252E-01 4.000000000E+01
 7.451677918E-01 1.994835287E-01 4.000000000E+01
 7.470139861E-01 2.028525323E-01 4.000000000E+01
 7.488132119E-01 2.062215358E-01 4.000000000E+01
 7.506037354E-01 2.095905393E-01 4.000000000E+01
 7.523854971E-01 2.129595429E-01 4.000000000E+01
 7.541587353E-01 2.163285464E-01 4.000000000E+01
 7.559233904E-01 2.196975499E-01 4.000000000E+01
 7.576635480E-01 2.230665535E-01 4.000000000E+01
 7.593438029E-01 2.264355570E-01 4.000000000E+01
 7.610161304E-01 2.298045605E-01 4.000000000E+01
 7.626808882E-01 2.331735641E-01 4.000000000E+01
 7.643378377E-01 2.365425676E-01 4.000000000E+01
 7.659871578E-01 2.399115711E-01 4.000000000E+01
 7.676289082E-01 2.432805747E-01 4.000000000E+01
 7.692480683E-01 2.466495782E-01 4.000000000E+01
 7.708204389E-01 2.500185966E-01 4.000000000E+01
 7.723857760E-01 2.533876002E-01 4.000000000E+01
 7.739441991E-01 2.567566037E-01 4.000000000E+01
 7.754957676E-01 2.601256073E-01 4.000000000E+01
 7.770404220E-01 2.634946108E-01 4.000000000E+01
 7.785782218E-01 2.668636143E-01 4.000000000E+01
 7.801092863E-01 2.702326179E-01 4.000000000E+01
 7.816089392E-01 2.736016214E-01 4.000000000E+01
 7.830847502E-01 2.769706249E-01 4.000000000E+01
 7.845541835E-01 2.803396285E-01 4.000000000E+01
 7.860172987E-01 2.837086320E-01 4.000000000E+01
 7.874741554E-01 2.870776355E-01 4.000000000E+01
 7.889248133E-01 2.904466391E-01 4.000000000E+01
 7.903692722E-01 2.938156426E-01 4.000000000E+01
 7.918075919E-01 2.971846461E-01 4.000000000E+01
 7.932375669E-01 3.005536497E-01 4.000000000E+01
 7.946382761E-01 3.039226532E-01 4.000000000E+01
 7.960330844E-01 3.072916567E-01 4.000000000E+01
 7.974221110E-01 3.106606603E-01 4.000000000E+01
 7.988052368E-01 3.140296638E-01 4.000000000E+01
 8.001828194E-01 3.173986673E-01 4.000000000E+01
 8.015545607E-01 3.207676709E-01 4.000000000E+01
 8.029206991E-01 3.241366744E-01 4.000000000E+01
 8.042812347E-01 3.275056779E-01 4.000000000E+01
 8.056361079E-01 3.308746815E-01 4.000000000E+01
 8.069741130E-01 3.342436850E-01 4.000000000E+01
 8.083015680E-01 3.376126885E-01 4.000000000E+01
 8.096236587E-01 3.409816921E-01 4.000000000E+01
 8.109403849E-01 3.443506956E-01 4.000000000E+01
 8.122517467E-01 3.477196991E-01 4.000000000E+01
 8.135578036E-01 3.510887027E-01 4.000000000E+01
 8.148586750E-01 3.544577062E-01 4.000000000E+01
 8.161541820E-01 3.578267097E-01 4.000000000E+01
 8.174444437E-01 3.611957133E-01 4.000000000E+01
 8.187295794E-01 3.645647168E-01 4.000000000E+01
 8.200110197E-01 3.679337204E-01 4.000000000E+01
 8.212935328E-01 3.713027239E-01 4.000000000E+01
 8.225708604E-01 3.746717274E-01 4.000000000E+01
 8.238430023E-01 3.780407310E-01 4.000000000E+01
 8.251100779E-01 3.814097345E-01 4.000000000E+01
 8.263721466E-01 3.847787380E-01 4.000000000E+01
 8.276290894E-01 3.881477416E-01 4.000000000E+01
 8.288810253E-01 3.915167451E-01 4.000000000E+01
 8.301280737E-01 3.948857486E-01 4.000000000E+01
 8.313700557E-01 3.982547522E-01 4.000000000E+01
 8.326071501E-01 4.016237557E-01 4.000000000E+01
 8.338393569E-01 4.049927592E-01 4.000000000E+01
 8.350908756E-01 4.083617628E-01 4.000000000E+01
 8.363451958E-01 4.117307663E-01 4.000000000E+01
 8.375943899E-01 4.150997698E-01 4.000000000E+01
 8.388386369E-01 4.184687734E-01 4.000000000E+01
 8.400778770E-01 4.218377769E-01 4.000000000E+01
 8.413121104E-01 4.252067804E-01 4.000000000E+01
 8.425414562E-01 4.285757840E-01 4.000000000E+01
 8.437659144E-01 4.319447875E-01 4.000000000E+01
 8.449854851E-01 4.353137910E-01 4.000000000E+01
 8.462001681E-01 4.386827946E-01 4.000000000E+01
 8.474100828E-01 4.420517981E-01 4.000000000E+01
 8.486152887E-01 4.454208016E-01 4.000000000E+01
 8.498159051E-01 4.487898052E-01 4.000000000E+01
 8.510238528E-01 4.521588087E-01 4.000000000E+01
 8.522266746E-01 4.555278122E-01 4.000000000E+01
 8.534246683E-01 4.588968158E-01 4.000000000E+01
 8.546178341E-01 4.622658193E-01 4.000000000E+01
 8.558060527E-01 4.656348228E-01 4.000000000E+01
 8.569895029E-01 4.690038264E-01 4.000000000E+01
 8.581681848E-01 4.723728299E-01 4.000000000E+01
 8.593421578E-01 4.757418334E-01 4.000000000E+01
 8.605112433E-01 4.791108370E-01 4.000000000E+01
 8.616757393E-01 4.824798405E-01 4.000000000E+01
 8.628355861E-01 4.858488441E-01 4.000000000E+01
 8.639906049E-01 4.892178476E-01 4.000000000E+01
 8.651411533E-01 4.925868511E-01 4.000000000E+01
 8.662940860E-01 4.959558547E-01 4.000000000E+01
 8.676211238E-01 4.993248582E-01 4.000000000E+01
 8.689426184E-01 5.026938915E-01 4.000000000E+01
 8.702584505E-01 5.060628653E-01 4.000000000E+01
 8.715686798E-01 5.094318986E-01 4.000000000E+01
 8.728734851E-01 5.128008723E-01 4.000000000E+01
 8.741726279E-01 5.161699057E-01 4.000000000E+01
 8.754664660E-01 5.195388794E-01 4.000000000E+01
 8.767548203E-01 5.229079127E-01 4.000000000E+01
 8.780378103E-01 5.262768865E-01 4.000000000E+01
 8.793154359E-01 5.296459198E-01 4.000000000E+01
 8.805876970E-01 5.330148935E-01 4.000000000E+01
 8.818546534E-01 5.363839269E-01 4.000000000E+01
 8.831163645E-01 5.397529006E-01 4.000000000E+01
 8.843728900E-01 5.431219339E-01 4.000000000E+01
 8.856242895E-01 5.464909077E-01 4.000000000E+01
 8.870550990E-01 5.498599410E-01 4.000000000E+01
 8.886487484E-01 5.532289147E-01 4.000000000E+01
 8.902351856E-01 5.565979481E-01 4.000000000E+01
 8.918144107E-01 5.599669218E-01 4.000000000E+01
 8.933864832E-01 5.633359551E-01 4.000000000E+01
 8.949513435E-01 5.667049289E-01 4.000000000E+01
 8.965092301E-01 5.700739622E-01 4.000000000E+01
 8.980601430E-01 5.734429359E-01 4.000000000E+01
 8.996040821E-01 5.768119693E-01 4.000000000E+01
 9.011410475E-01 5.801809430E-01 4.000000000E+01
 9.026710987E-01 5.835499763E-01 4.000000000E+01
 9.041944146E-01 5.869189501E-01 4.000000000E+01
 9.057109356E-01 5.902879834E-01 4.000000000E+01
 9.072207212E-01 5.936569571E-01 4.000000000E+01
 9.087238908E-01 5.970259905E-01 4.000000000E+01
 9.102202058E-01 6.003949642E-01 4.000000000E+01
 9.117100835E-01 6.037639976E-01 4.000000000E+01
 9.132077098E-01 6.071329713E-01 4.000000000E+01
 9.147276282E-01 6.105020046E-01 4.000000000E+01
 9.162403345E-01 6.138709784E-01 4.000000000E+01
 9.177455306E-01 6.172400117E-01 4.000000000E+01
 9.192435145E-01 6.206089854E-01 4.000000000E+01
 9.207341671E-01 6.239780188E-01 4.000000000E+01
 9.222176075E-01 6.273469925E-01 4.000000000E+01
 9.236938953E-01 6.307160258E-01 4.000000000E+01
 9.251631498E-01 6.340849996E-01 4.000000000E+01
 9.266251922E-01 6.374540329E-01 4.000000000E+01
 9.280803800E-01 6.408230066E-01 4.000000000E+01
 9.295285344E-01 6.441920400E-01 4.000000000E+01
 9.309698343E-01 6.475610137E-01 4.000000000E+01
 9.324042201E-01 6.509300470E-01 4.000000000E+01
 9.338318706E-01 6.542990208E-01 4.000000000E+01
 9.352527261E-01 6.576680541E-01 4.000000000E+01
 9.366668463E-01 6.610370278E-01 4.000000000E+01
 9.380743504E-01 6.644060612E-01 4.000000000E+01
 9.394751787E-01 6.677750349E-01 4.000000000E+01
 9.407652617E-01 6.711440682E-01 4.000000000E+01
 9.419091344E-01 6.745130420E-01 4.000000000E+01
 9.430474043E-01 6.778820753E-01 4.000000000E+01
 9.441798329E-01 6.812510490E-01 4.000000000E+01
 9.453066587E-01 6.846200824E-01 4.000000000E+01
 9.464277625E-01 6.879890561E-01 4.000000000E+01
 9.475434422E-01 6.913580894E-01 4.000000000E+01
 9.486534595E-01 6.947270632E-01 4.000000000E+01
 9.497581124E-01 6.980960965E-01 4.000000000E+01
 9.508571029E-01 7.014650702E-01 4.000000000E+01
 9.519508481E-01 7.048341036E-01 4.000000000E+01
 9.530391097E-01 7.082030773E-01 4.000000000E+01
 9.541220069E-01 7.115721107E-01 4.000000000E+01
 9.551997185E-01 7.149410844E-01 4.000000000E+01
 9.562720656E-01 7.183101177E-01 4.000000000E+01
 9.573392272E-01 7.216790915E-01 4.000000000E+01
 9.584012032E-01 7.250481248E-01 4.000000000E+01
 9.594579935E-01 7.284170985E-01 4.000000000E+01
 9.605097175E-01 7.317861319E-01 4.000000000E+01
 9.615564346E-01 7.351551056E-01 4.000000000E+01
 9.625979662E-01 7.385241389E-01 4.000000000E+01
 9.635476470E-01 7.418931127E-01 4.000000000E+01
 9.643987417E-01 7.452621460E-01 4.000000000E+01
 9.652456641E-01 7.486311197E-01 4.000000000E+01
 9.660884738E-01 7.520001531E-01 4.000000000E+01
 9.669273496E-01 7.553691268E-01 4.000000000E+01
 9.677619934E-01 7.587381601E-01 4.000000000E+01
 9.685927629E-01 7.621071339E-01 4.000000000E+01
 9.694195390E-01 7.654761672E-01 4.000000000E+01
 9.702423811E-01 7.688451409E-01 4.000000000E+01
 9.710612893E-01 7.722141743E-01 4.000000000E+01
 9.718763828E-01 7.755831480E-01 4.000000000E+01
 9.726874828E-01 7.789521813E-01 4.000000000E+01
 9.734947681E-01 7.823211551E-01 4.000000000E+01
 9.742982984E-01 7.856901884E-01 4.000000000E+01
 9.750980735E-01 7.890591621E-01 4.000000000E+01
 9.758940935E-01 7.924281955E-01 4.000000000E+01
 9.766862988E-01 7.957971692E-01 4.000000000E+01
 9.774748683E-01 7.991662025E-01 4.000000000E+01
 9.782598019E-01 8.025351763E-01 4.000000000E+01
 9.790410399E-01 8.059042096E-01 4.000000000E+01
 9.798186421E-01 8.092731833E-01 4.000000000E+01
 9.805926681E-01 8.126422167E-01 4.000000000E+01
 9.813631177E-01 8.160111904E-01 4.000000000E+01
 9.820616245E-01 8.193802238E-01 4.000000000E+01
 9.826110005E-01 8.227491975E-01 4.000000000E+01
 9.831583500E-01 8.261182308E-01 4.000000000E+01
 9.837034345E-01 8.294872046E-01 4.000000000E+01
 9.842464328E-01 8.328562379E-01 4.000000000E+01
 9.847874641E-01 8.362252116E-01 4.000000000E+01
 9.853263497E-01 8.395942450E-01 4.000000000E+01
 9.858630896E-01 8.429632187E-01 4.000000000E+01
 9.863978028E-01 8.463322520E-01 4.000000000E+01
 9.869304299E-01 8.497012258E-01 4.000000000E+01
 9.874610901E-01 8.530702591E-01 4.000000000E+01
 9.879897237E-01 8.564392328E-01 4.000000000E+01
 9.885163307E-01 8.598082662E-01 4.000000000E+01
 9.890407920E-01 8.631772399E-01 4.000000000E+01
 9.895634055E-01 8.665462732E-01 4.000000000E+01
 9.900840521E-01 8.699153066E-01 4.000000000E+01
 9.906026125E-01 8.732842803E-01 4.000000000E+01
 9.911193252E-01 8.766533136E-01 4.000000000E+01
 9.916340113E-01 8.800222874E-01 4.000000000E+01
 9.921468496E-01 8.833913207E-01 4.000000000E+01
 9.926576614E-01 8.867602944E-01 4.000000000E+01
 9.931665659E-01 8.901293278E-01 4.000000000E+01
 9.936736822E-01 8.934983015E-01 4.000000000E+01
 9.941787124E-01 8.968673348E-01 4.000000000E+01
 9.946820140E-01 9.002363086E-01 4.000000000E+01
 9.951833487E-01 9.036053419E-01 4.000000000E+01
 9.954527020E-01 9.069743156E-01 4.000000000E+01
 9.956243038E-01 9.103433490E-01 4.000000000E+01
 9.957957864E-01 9.137123227E-01 4.000000000E+01
 9.959669709E-01 9.170813560E-01 4.000000000E+01
 9.961379766E-01 9.204503298E-01 4.000000000E+01
 9.963086247E-01 9.238193631E-01 4.000000000E+01
 9.964790940E-01 9.271883368E-01 4.000000000E+01
 9.966492057E-01 9.305573702E-01 4.000000000E+01
 9.968191385E-01 9.339263439E-01 4.000000000E+01
 9.969887733E-01 9.372953773E-01 4.000000000E+01
 9.971581697E-01 9.406643510E-01 4.000000000E+01
 9.973273873E-01 9.440333843E-01 4.000000000E+01
 9.974962473E-01 9.474023581E-01 4.000000000E+01
 9.976649880E-01 9.507713914E-01 4.000000000E+01
 9.978333712E-01 9.541403651E-01 4.000000000E+01
 9.980015755E-01 9.575093985E-01 4.000000000E+01
 9.981694221E-01 9.608783722E-01 4.000000000E+01
 9.983370900E-01 9.642474055E-01 4.000000000E+01
 9.985045195E-01 9.676163793E-01 4.000000000E+01
 9.986717105E-01 9.709854126E-01 4.000000000E+01
 9.988384843E-01 9.743543863E-01 4.000000000E+01
 9.990051985E-01 9.777234197E-01 4.000000000E+01
 9.991715550E-01 9.810923934E-01 4.000000000E+01
 9.993377328E-01 9.844614267E-01 4.000000000E+01
 9.995036721E-01 9.878304005E-01 4.000000000E+01
 9.996693730E-01 9.911994338E-01 4.000000000E+01
 9.998348355E-01 9.945684075E-01 4.000000000E+01
 1.000000000E+00 9.979374409E-01 4.000000000E+01
 1.000000000E+00 9.979374409E-01 4.000000000E+01
 1.000000000E+00 9.979374409E-01 4.000000000E+01
 1.000000000E+00 9.979374409E-01 4.000000000E+01
