VARIABLES = "y" "uuprime" "wwprime" "vvprime"
ZONE T="CFL3D, SA-RC-QCR2013"
 4.999999987E-07 5.835106009E-11 4.705730250E-11 3.576354490E-11
 1.000465204E-06 5.033555239E-10 4.059318437E-10 3.085081357E-10
 1.501861107E-06 2.164160406E-09 1.745290357E-09 1.326420307E-09
 2.004654107E-06 6.437308908E-09 5.191377106E-09 3.945445304E-09
 2.509312253E-06 1.531396521E-08 1.234996905E-08 9.385972888E-09
 3.016304618E-06 3.141655469E-08 2.533592536E-08 1.925529425E-08
 3.526103228E-06 5.804681535E-08 4.681193388E-08 3.557704886E-08
 4.039182386E-06 9.924589506E-08 8.003697616E-08 6.082806436E-08
 4.556018666E-06 1.598672839E-07 1.289251657E-07 9.798305456E-08
 5.077094102E-06 2.456641255E-07 1.981161404E-07 1.505681411E-07
 5.602892543E-06 3.633908818E-07 2.930570133E-07 2.227231306E-07
 6.133903298E-06 5.209223559E-07 4.200984165E-07 3.192745055E-07
 6.670620678E-06 7.273908409E-07 5.866051538E-07 4.458194667E-07
 7.213543540E-06 9.933427236E-07 8.010823080E-07 6.088218925E-07
 7.763177564E-06 1.330918053E-06 1.073320163E-06 8.157223874E-07
 8.320033885E-06 1.754053301E-06 1.414557914E-06 1.075062642E-06
 8.884630006E-06 2.278711690E-06 1.837669174E-06 1.396626658E-06
 9.457491615E-06 2.923143711E-06 2.357371841E-06 1.791599971E-06
 1.003915168E-05 3.708179065E-06 2.990464054E-06 2.272749271E-06
 1.063015134E-05 4.657553291E-06 3.756087608E-06 2.854621926E-06
 1.123103993E-05 5.798274287E-06 4.676022854E-06 3.553770966E-06
 1.184237772E-05 7.161037502E-06 5.775023965E-06 4.389009973E-06
 1.246473221E-05 8.780670214E-06 7.081177046E-06 5.381684332E-06
 1.309868276E-05 1.069664086E-05 8.626312592E-06 6.555984328E-06
 1.374481872E-05 1.295361380E-05 1.044644978E-05 7.939284842E-06
 1.440374217E-05 1.560206329E-05 1.258229258E-05 9.562520972E-06
 1.507606521E-05 1.869892913E-05 1.507975958E-05 1.146059094E-05
 1.576241448E-05 2.230835889E-05 1.799058555E-05 1.367281129E-05
 1.646342571E-05 2.650245915E-05 2.137291631E-05 1.624337528E-05
 1.717975465E-05 3.136217128E-05 2.529203448E-05 1.922189404E-05
 1.791206523E-05 3.697812281E-05 2.982101796E-05 2.266391130E-05
 1.866104139E-05 4.345159687E-05 3.504154665E-05 2.663149826E-05
 1.942737617E-05 5.089538899E-05 4.104459367E-05 3.119379835E-05
 2.021178625E-05 5.943492215E-05 4.793129483E-05 3.642767115E-05
 2.101499740E-05 6.920904707E-05 5.581363439E-05 4.241822535E-05
 2.183776087E-05 8.037106454E-05 6.481524179E-05 4.925941903E-05
 2.268083881E-05 9.308940207E-05 7.507193368E-05 5.705446893E-05
 2.354501703E-05 1.075484179E-04 8.673240518E-05 6.591638521E-05
 2.443110134E-05 1.239488192E-04 9.995850269E-05 7.596816431E-05
 2.533991210E-05 1.425076625E-04 1.149252566E-04 8.734285075E-05
 2.627229696E-05 1.634583459E-04 1.318209106E-04 1.001834826E-04
 2.722912359E-05 1.870497363E-04 1.508461719E-04 1.146426002E-04
 2.821128328E-05 2.135449758E-04 1.722132147E-04 1.308814681E-04
 2.921968553E-05 2.432189940E-04 1.961438102E-04 1.490685972E-04
 3.025527258E-05 2.763560915E-04 2.228671510E-04 1.693782251E-04
 3.131900667E-05 3.132454876E-04 2.526165626E-04 1.919876231E-04
 3.241187733E-05 3.541763872E-04 2.856252249E-04 2.170740481E-04
 3.353489956E-05 3.994313302E-04 3.221209627E-04 2.448106534E-04
 3.468912109E-05 4.492790322E-04 3.623205412E-04 2.753621084E-04
 3.587561514E-05 5.039650714E-04 4.064219829E-04 3.088789235E-04
 3.709548400E-05 5.637020222E-04 4.545967386E-04 3.454914549E-04
 3.834985910E-05 6.286588032E-04 5.069809267E-04 3.853031085E-04
 3.963991549E-05 6.989494432E-04 5.636666319E-04 4.283838789E-04
 4.096685007E-05 7.746213814E-04 6.246920675E-04 4.747627827E-04
 4.233189611E-05 8.556449902E-04 6.900332519E-04 5.244215718E-04
 4.373632328E-05 9.419042035E-04 7.595966454E-04 5.772892036E-04
 4.518143760E-05 1.033189590E-03 8.332133875E-04 6.332373014E-04
 4.666858513E-05 1.129194046E-03 9.106357465E-04 6.920776214E-04
 4.819914830E-05 1.229511923E-03 9.915366536E-04 7.535614423E-04
 4.977455319E-05 1.333643100E-03 1.075512730E-03 8.173824172E-04
 5.139626228E-05 1.441000612E-03 1.162090572E-03 8.831805899E-04
 5.306578896E-05 1.550923218E-03 1.250736881E-03 9.505506605E-04
 5.478467938E-05 1.662690891E-03 1.340871095E-03 1.019051415E-03
 5.655453788E-05 1.775545185E-03 1.431881683E-03 1.088218065E-03
 5.837701246E-05 1.888709725E-03 1.523142215E-03 1.157574588E-03
 6.025379116E-05 2.001411980E-03 1.614029752E-03 1.226647408E-03
 6.218662747E-05 2.112905961E-03 1.703942893E-03 1.294979593E-03
 6.417731493E-05 2.222490730E-03 1.792316092E-03 1.362141338E-03
 6.622770888E-05 2.329527400E-03 1.878634444E-03 1.427741139E-03
 6.833971565E-05 2.433453221E-03 1.962443581E-03 1.491433824E-03
 7.051529974E-05 2.533789026E-03 2.043357585E-03 1.552926027E-03
 7.275648386E-05 2.630145755E-03 2.121062484E-03 1.611979096E-03
 7.506535621E-05 2.722224221E-03 2.195317298E-03 1.668409794E-03
 7.744405593E-05 2.809813479E-03 2.265951131E-03 1.722088666E-03
 7.989480946E-05 2.892785007E-03 2.332861302E-03 1.772937016E-03
 8.241988689E-05 2.971085254E-03 2.396003576E-03 1.820921781E-03
 8.502163837E-05 3.044726560E-03 2.455388894E-03 1.866050996E-03
 8.770249406E-05 3.113779007E-03 2.511073370E-03 1.908367150E-03
 9.046493506E-05 3.178358078E-03 2.563149901E-03 1.947941142E-03
 9.331152978E-05 3.238616977E-03 2.611742122E-03 1.984867034E-03
 9.624494123E-05 3.294737777E-03 2.656997181E-03 2.019256121E-03
 9.926789062E-05 3.346922342E-03 2.699077362E-03 2.051232383E-03
 1.023831865E-04 3.395385575E-03 2.738156589E-03 2.080927603E-03
 1.055937319E-04 3.440350061E-03 2.774413908E-03 2.108477755E-03
 1.089025172E-04 3.482040251E-03 2.808030695E-03 2.134020673E-03
 1.123126131E-04 3.520678496E-03 2.839185996E-03 2.157693030E-03
 1.158271916E-04 3.556482494E-03 2.868055133E-03 2.179627540E-03
 1.194495271E-04 3.589661792E-03 2.894807607E-03 2.199953189E-03
 1.231829810E-04 3.620417090E-03 2.919605002E-03 2.218792681E-03
 1.270310458E-04 3.648938145E-03 2.942600520E-03 2.236262430E-03
 1.309972722E-04 3.675403772E-03 2.963938052E-03 2.252471866E-03
 1.350853854E-04 3.699980909E-03 2.983752405E-03 2.267523669E-03
 1.392991544E-04 3.722824622E-03 3.002168844E-03 2.281512599E-03
 1.436425227E-04 3.744078800E-03 3.019303083E-03 2.294527134E-03
 1.481195213E-04 3.763875924E-03 3.035262227E-03 2.306648064E-03
 1.527343265E-04 3.782337997E-03 3.050144529E-03 2.317950595E-03
 1.574912167E-04 3.799576545E-03 3.064039862E-03 2.328502480E-03
 1.623946155E-04 3.815693548E-03 3.077030182E-03 2.338366583E-03
 1.674490923E-04 3.830781672E-03 3.089191159E-03 2.347599948E-03
 1.726593473E-04 3.844925901E-03 3.100590315E-03 2.356254263E-03
 1.780302409E-04 3.858203068E-03 3.111290280E-03 2.364376793E-03
 1.835667499E-04 3.870683024E-03 3.121347167E-03 2.372010611E-03
 1.892740256E-04 3.882429097E-03 3.130811965E-03 2.379193902E-03
 1.951573940E-04 3.893498797E-03 3.139730776E-03 2.385962056E-03
 2.012223267E-04 3.903943580E-03 3.148145741E-03 2.392346738E-03
 2.074744407E-04 3.913810477E-03 3.156094346E-03 2.398377052E-03
 2.139195858E-04 3.923142329E-03 3.163611051E-03 2.404078841E-03
 2.205637284E-04 3.931977320E-03 3.170726821E-03 2.409475390E-03
 2.274130820E-04 3.940349445E-03 3.177469363E-03 2.414588118E-03
 2.344739914E-04 3.948290832E-03 3.183864290E-03 2.419436118E-03
 2.417530341E-04 3.955829889E-03 3.189933952E-03 2.424036851E-03
 2.492569620E-04 3.962991294E-03 3.195699304E-03 2.428405685E-03
 2.569928183E-04 3.969799262E-03 3.201178974E-03 2.432557056E-03
 2.649677335E-04 3.976273816E-03 3.206389491E-03 2.436503768E-03
 2.731891291E-04 3.982434515E-03 3.211346455E-03 2.440256998E-03
 2.816647175E-04 3.988297656E-03 3.216063604E-03 2.443827689E-03
 2.904023277E-04 3.993879538E-03 3.220553044E-03 2.447224921E-03
 2.994100796E-04 3.999193665E-03 3.224826418E-03 2.450457308E-03
 3.086963843E-04 4.004252609E-03 3.228893736E-03 2.453532768E-03
 3.182698856E-04 4.009068012E-03 3.232764313E-03 2.456458053E-03
 3.281394893E-04 4.013651051E-03 3.236446530E-03 2.459239913E-03
 3.383143339E-04 4.018009640E-03 3.239947837E-03 2.461883705E-03
 3.488039365E-04 4.022153094E-03 3.243275220E-03 2.464394551E-03
 3.596180177E-04 4.026089795E-03 3.246434731E-03 2.466777340E-03
 3.707666765E-04 4.029825330E-03 3.249432193E-03 2.469036262E-03
 3.822602448E-04 4.033366684E-03 3.252272261E-03 2.471175278E-03
 3.941094328E-04 4.036719445E-03 3.254959825E-03 2.473197412E-03
 4.063252709E-04 4.039888736E-03 3.257499076E-03 2.475106157E-03
 4.189191386E-04 4.042879213E-03 3.259893274E-03 2.476904076E-03
 4.319027066E-04 4.045695066E-03 3.262145910E-03 2.478593728E-03
 4.452880821E-04 4.048339557E-03 3.264260013E-03 2.480177209E-03
 4.590877215E-04 4.050816409E-03 3.266238142E-03 2.481656615E-03
 4.733144306E-04 4.053127952E-03 3.268082626E-03 2.483033575E-03
 4.879814805E-04 4.055276979E-03 3.269795096E-03 2.484309487E-03
 5.031024921E-04 4.057265818E-03 3.271377645E-03 2.485485747E-03
 5.186916096E-04 4.059095867E-03 3.272831673E-03 2.486563288E-03
 5.347632105E-04 4.060768988E-03 3.274158109E-03 2.487543039E-03
 5.513323122E-04 4.062286578E-03 3.275358351E-03 2.488425700E-03
 5.684143398E-04 4.063648637E-03 3.276432632E-03 2.489211736E-03
 5.860251840E-04 4.064856563E-03 3.277381649E-03 2.489901613E-03
 6.041811430E-04 4.065910820E-03 3.278205637E-03 2.490495332E-03
 6.228992715E-04 4.066810943E-03 3.278904594E-03 2.490992891E-03
 6.421967992E-04 4.067557398E-03 3.279478522E-03 2.491394291E-03
 6.620918284E-04 4.068149254E-03 3.279926954E-03 2.491699066E-03
 6.826028111E-04 4.068585578E-03 3.280249191E-03 2.491906751E-03
 7.037487812E-04 4.068866372E-03 3.280444536E-03 2.492016647E-03
 7.255495293E-04 4.068989772E-03 3.280512057E-03 2.492028056E-03
 7.480251952E-04 4.068953916E-03 3.280450357E-03 2.491939813E-03
 7.711967919E-04 4.068757873E-03 3.280258039E-03 2.491750754E-03
 7.950857980E-04 4.068399779E-03 3.279933473E-03 2.491459949E-03
 8.197145071E-04 4.067876376E-03 3.279474797E-03 2.491065534E-03
 8.451058529E-04 4.067185335E-03 3.278879682E-03 2.490565879E-03
 8.712833514E-04 4.066323861E-03 3.278145799E-03 2.489959123E-03
 8.982714498E-04 4.065289162E-03 3.277270589E-03 2.489243168E-03
 9.260951774E-04 4.064077511E-03 3.276251256E-03 2.488415921E-03
 9.547804948E-04 4.062684253E-03 3.275084542E-03 2.487474820E-03
 9.843540611E-04 4.061106127E-03 3.273766953E-03 2.486417303E-03
 1.014843350E-03 4.059338477E-03 3.272294765E-03 2.485240577E-03
 1.046276768E-03 4.057376646E-03 3.270664252E-03 2.483941149E-03
 1.078683534E-03 4.055214580E-03 3.268870758E-03 2.482515760E-03
 1.112093800E-03 4.052846693E-03 3.266909858E-03 2.480961150E-03
 1.146538649E-03 4.050267395E-03 3.264776431E-03 2.479273127E-03
 1.182050211E-03 4.047469702E-03 3.262465121E-03 2.477447735E-03
 1.218661433E-03 4.044447094E-03 3.259970574E-03 2.475480549E-03
 1.256406307E-03 4.041191190E-03 3.257286269E-03 2.473366680E-03
 1.295320108E-03 4.037695006E-03 3.254405688E-03 2.471101470E-03
 1.335438923E-03 4.033949692E-03 3.251322079E-03 2.468679333E-03
 1.376800123E-03 4.029945936E-03 3.248027992E-03 2.466094447E-03
 1.419442124E-03 4.025673959E-03 3.244515741E-03 2.463340992E-03
 1.463404740E-03 4.021123517E-03 3.240776947E-03 2.460412448E-03
 1.508728717E-03 4.016284365E-03 3.236802528E-03 2.457302297E-03
 1.555456314E-03 4.011144396E-03 3.232583171E-03 2.454002853E-03
 1.603630953E-03 4.005691037E-03 3.228108864E-03 2.450506669E-03
 1.653297455E-03 3.999912180E-03 3.223369131E-03 2.446805593E-03
 1.704502036E-03 3.993792925E-03 3.218352795E-03 2.442891244E-03
 1.757292310E-03 3.987319302E-03 3.213047981E-03 2.438754309E-03
 1.811717520E-03 3.980475478E-03 3.207441885E-03 2.434385009E-03
 1.867828076E-03 3.973244689E-03 3.201521467E-03 2.429773333E-03
 1.925676246E-03 3.965610638E-03 3.195272293E-03 2.424908569E-03
 1.985315932E-03 3.957553767E-03 3.188679926E-03 2.419779310E-03
 2.046802780E-03 3.949054983E-03 3.181728069E-03 2.414373215E-03
 2.110193484E-03 3.940094262E-03 3.174400423E-03 2.408677945E-03
 2.175547648E-03 3.930648789E-03 3.166679526E-03 2.402679995E-03
 2.242925344E-03 3.920696676E-03 3.158546519E-03 2.396364929E-03
 2.312389901E-03 3.910212778E-03 3.149981610E-03 2.389718080E-03
 2.384005813E-03 3.899171250E-03 3.140964545E-03 2.382723382E-03
 2.457839437E-03 3.887546016E-03 3.131472971E-03 2.375364304E-03
 2.533959458E-03 3.875307506E-03 3.121483838E-03 2.367623150E-03
 2.612437122E-03 3.862425918E-03 3.110972932E-03 2.359481528E-03
 2.693345072E-03 3.848869354E-03 3.099914407E-03 2.350919647E-03
 2.776758745E-03 3.834603820E-03 3.088281257E-03 2.341917017E-03
 2.862755442E-03 3.819594160E-03 3.076044843E-03 2.332451986E-03
 2.951415488E-03 3.803802887E-03 3.063174896E-03 2.322501736E-03
 3.042821307E-03 3.787190421E-03 3.049639519E-03 2.312041819E-03
 3.137057880E-03 3.769715317E-03 3.035405651E-03 2.301046858E-03
 3.234212985E-03 3.751333570E-03 3.020437434E-03 2.289490541E-03
 3.334376728E-03 3.731999313E-03 3.004698316E-03 2.277344465E-03
 3.437642707E-03 3.711663419E-03 2.988148713E-03 2.264578827E-03
 3.544106614E-03 3.690275364E-03 2.970747883E-03 2.251163125E-03
 3.653867636E-03 3.667781129E-03 2.952452516E-03 2.237064298E-03
 3.767027752E-03 3.644124139E-03 2.933216980E-03 2.222247887E-03
 3.883692669E-03 3.619244788E-03 2.912993776E-03 2.206678269E-03
 4.003970418E-03 3.593081143E-03 2.891732613E-03 2.190317493E-03
 4.127973225E-03 3.565567080E-03 2.869381104E-03 2.173125977E-03
 4.255816340E-03 3.536634147E-03 2.845883835E-03 2.155062044E-03
 4.387618508E-03 3.506210400E-03 2.821183298E-03 2.136082156E-03
 4.523502663E-03 3.474220401E-03 2.795219421E-03 2.116141375E-03
 4.663594998E-03 3.440585220E-03 2.767928410E-03 2.095191739E-03
 4.808025900E-03 3.405222669E-03 2.739244606E-03 2.073184121E-03
 4.956929944E-03 3.368046368E-03 2.709099092E-03 2.050066600E-03
 5.110444967E-03 3.328967374E-03 2.677420620E-03 2.025785856E-03
 5.268714856E-03 3.287891857E-03 2.644134220E-03 2.000285778E-03
 5.431886297E-03 3.244723659E-03 2.609163057E-03 1.973508624E-03
 5.600110628E-03 3.199362429E-03 2.572427038E-03 1.945395139E-03
 5.773545243E-03 3.151704557E-03 2.533843741E-03 1.915883273E-03
 5.952350795E-03 3.101643641E-03 2.493327949E-03 1.884909812E-03
 6.136693992E-03 3.049070248E-03 2.450792817E-03 1.852409914E-03
 6.326746196E-03 2.993872622E-03 2.406149171E-03 1.818317454E-03
 6.522683892E-03 2.935936674E-03 2.359306673E-03 1.782565261E-03
 6.724690087E-03 2.875147620E-03 2.310173586E-03 1.745085465E-03
 6.932952441E-03 2.811389510E-03 2.258658176E-03 1.705810311E-03
 7.147664204E-03 2.744547091E-03 2.204669174E-03 1.664672513E-03
 7.369025610E-03 2.674506977E-03 2.148117172E-03 1.621605828E-03
 7.597242948E-03 2.601158805E-03 2.088914393E-03 1.576546580E-03
 7.832527161E-03 2.524397336E-03 2.026978647E-03 1.529434347E-03
 8.075099438E-03 2.444123849E-03 1.962231705E-03 1.480212668E-03
 8.325182833E-03 2.360250801E-03 1.894605928E-03 1.428832649E-03
 8.583012037E-03 2.272702986E-03 1.824042411E-03 1.375252730E-03
 8.848825470E-03 2.181422431E-03 1.750497380E-03 1.319442526E-03
 9.122870862E-03 2.086373512E-03 1.673944294E-03 1.261384925E-03
 9.405404329E-03 1.987547614E-03 1.594378497E-03 1.201079926E-03
 9.696686640E-03 1.884971512E-03 1.511824317E-03 1.138548716E-03
 9.996990673E-03 1.778713078E-03 1.426338917E-03 1.073838095E-03
 1.030659489E-02 1.668893965E-03 1.338022761E-03 1.007027226E-03
 1.062578708E-02 1.555699739E-03 1.247027423E-03 9.382338030E-04
 1.095486525E-02 1.439393265E-03 1.153566409E-03 8.676223806E-04
 1.129413396E-02 1.320333569E-03 1.057930640E-03 7.954154280E-04
 1.164390985E-02 1.198992366E-03 9.605009109E-04 7.219029940E-04
 1.200451888E-02 1.075979671E-03 8.617686108E-04 6.474578986E-04
 1.237629540E-02 9.520709282E-04 7.623573183E-04 5.725517985E-04
 1.275958586E-02 8.282372146E-04 6.630467833E-04 4.977730568E-04
 1.315474603E-02 7.056834293E-04 5.648030201E-04 4.238489491E-04
 1.356214564E-02 5.858839140E-04 4.688070621E-04 3.516667639E-04
 1.398216095E-02 4.706320469E-04 3.764937283E-04 2.823026443E-04
 1.441518404E-02 3.620700736E-04 2.895752259E-04 2.170385269E-04
 1.486161817E-02 2.627216163E-04 2.100670245E-04 1.573809714E-04
 1.532187872E-02 1.755004050E-04 1.402934722E-04 1.050644569E-04
 1.579639316E-02 1.035333116E-04 8.274655556E-05 6.194549496E-05
 1.628560200E-02 5.005131607E-05 3.999902765E-05 2.993702947E-05
 1.678996161E-02 1.737260754E-05 1.388801593E-05 1.039585550E-05
 1.730994321E-02 3.403943538E-06 2.725108516E-06 2.042160986E-06
 1.784602553E-02 2.076205305E-07 1.673171823E-07 1.261742852E-07
 1.839871332E-02 2.040724478E-09 1.844690067E-09 1.605412914E-09
 1.896851510E-02 2.179588593E-10 3.298416540E-10 4.333762238E-10
 1.955596358E-02 1.743610534E-10 2.896679563E-10 3.994380382E-10
 2.016160637E-02 1.731455257E-10 2.886228756E-10 3.990452691E-10
 2.078600600E-02 1.739516309E-10 2.899482321E-10 4.009597099E-10
 2.142974176E-02 1.749222295E-10 2.914568864E-10 4.030410450E-10
 2.209341526E-02 1.758929946E-10 2.929502474E-10 4.050704494E-10
 2.277764119E-02 1.767814783E-10 2.942971977E-10 4.068924642E-10
 2.348305658E-02 1.775102565E-10 2.954256284E-10 4.084364791E-10
 2.421032079E-02 1.781595704E-10 2.964579970E-10 4.098684447E-10
 2.496010624E-02 1.787423543E-10 2.974131219E-10 4.112111762E-10
 2.573311329E-02 1.793118432E-10 2.983486513E-10 4.125263187E-10
 2.653006092E-02 1.799370514E-10 2.993471859E-10 4.139096288E-10
 2.735168859E-02 1.805713357E-10 3.003472748E-10 4.152849731E-10
 2.819876187E-02 1.811546746E-10 3.012654570E-10 4.165467693E-10
 2.907206863E-02 1.816760492E-10 3.020882433E-10 4.176797797E-10
 2.997242101E-02 1.821508083E-10 3.028474971E-10 4.187311053E-10
 3.090065904E-02 1.825971180E-10 3.035663665E-10 4.197286407E-10
 3.185764328E-02 1.830251367E-10 3.042537056E-10 4.206801851E-10
 3.284426406E-02 1.834303820E-10 3.049042685E-10 4.215794935E-10
 3.386143968E-02 1.838089125E-10 3.055136977E-10 4.224220973E-10
 3.491012007E-02 1.841620884E-10 3.060843523E-10 4.232113548E-10
 3.599127382E-02 1.844920189E-10 3.066198684E-10 4.239524842E-10
 3.710591421E-02 1.848004944E-10 3.071228549E-10 4.246487606E-10
 3.825507313E-02 1.850890691E-10 3.075952548E-10 4.253027097E-10
 3.943981975E-02 1.853587284E-10 3.080387612E-10 4.259166908E-10
 4.066125676E-02 1.856103465E-10 3.084548450E-10 4.264929521E-10
 4.192052409E-02 1.858450477E-10 3.088451994E-10 4.270338250E-10
 4.321879148E-02 1.860639559E-10 3.092115730E-10 4.275416687E-10
 4.455726221E-02 1.862681398E-10 3.095555479E-10 4.280188148E-10
 4.593718797E-02 1.864586680E-10 3.098787893E-10 4.284674560E-10
 4.735985026E-02 1.866365396E-10 3.101828239E-10 4.288898403E-10
 4.882656783E-02 1.868027816E-10 3.104691781E-10 4.292880773E-10
 5.033871159E-02 1.869583238E-10 3.107392954E-10 4.296642486E-10
 5.189768597E-02 1.871040961E-10 3.109946189E-10 4.300202694E-10
 5.350494012E-02 1.872410144E-10 3.112364533E-10 4.303581103E-10
 5.516197160E-02 1.873698974E-10 3.114661584E-10 4.306796031E-10
 5.687032267E-02 1.874915917E-10 3.116849556E-10 4.309864965E-10
 5.863158032E-02 1.876068190E-10 3.118940384E-10 4.312804558E-10
 6.044737995E-02 1.877163425E-10 3.120944891E-10 4.315630631E-10
 6.231941655E-02 1.878208006E-10 3.122873349E-10 4.318357061E-10
 6.424943358E-02 1.879207623E-10 3.124735193E-10 4.320997449E-10
 6.623921543E-02 1.880167966E-10 3.126538750E-10 4.323563174E-10
 6.829062104E-02 1.881093337E-10 3.128290960E-10 4.326064784E-10
 7.040556520E-02 1.881988176E-10 3.129998760E-10 4.328510883E-10
 7.258599997E-02 1.882855816E-10 3.131667148E-10 4.330909520E-10
 7.483396679E-02 1.883699169E-10 3.133301396E-10 4.333267356E-10
 7.715155184E-02 1.884520734E-10 3.134905113E-10 4.335589943E-10
 7.954090834E-02 1.885322592E-10 3.136482185E-10 4.337881720E-10
 8.200427145E-02 1.886106410E-10 3.138034832E-10 4.340146575E-10
 8.454391360E-02 1.886873435E-10 3.139565274E-10 4.342387283E-10
 8.716221154E-02 1.887624917E-10 3.141075733E-10 4.344606341E-10
 8.986160159E-02 1.888361412E-10 3.142567317E-10 4.346805693E-10
 9.264458716E-02 1.889083473E-10 3.144041139E-10 4.348986171E-10
 9.551376104E-02 1.889791656E-10 3.145497751E-10 4.351148886E-10
 9.847179055E-02 1.890485823E-10 3.146937433E-10 4.353294114E-10
 1.015214324E-01 1.891166251E-10 3.148360739E-10 4.355421579E-10
 1.046655178E-01 1.891832524E-10 3.149766836E-10 4.357530725E-10
 1.079069749E-01 1.892484502E-10 3.151155448E-10 4.359620998E-10
 1.112488210E-01 1.893121493E-10 3.152526018E-10 4.361691008E-10
 1.146941632E-01 1.893742940E-10 3.153877437E-10 4.363739092E-10
 1.182462052E-01 1.894348151E-10 3.155208317E-10 4.365763862E-10
 1.219082549E-01 1.894936152E-10 3.156517270E-10 4.367762541E-10
 1.256837100E-01 1.895505697E-10 3.157802630E-10 4.369732909E-10
 1.295761019E-01 1.896055951E-10 3.159062179E-10 4.371672191E-10
 1.335890293E-01 1.896585250E-10 3.160293693E-10 4.373576501E-10
 1.377262473E-01 1.897092206E-10 3.161494677E-10 4.375442786E-10
 1.419915855E-01 1.897575153E-10 3.162662354E-10 4.377266882E-10
 1.463890225E-01 1.898032148E-10 3.163793671E-10 4.379044349E-10
 1.509226412E-01 1.898461249E-10 3.164884743E-10 4.380770191E-10
 1.555966735E-01 1.898860097E-10 3.165931961E-10 4.382439134E-10
 1.604154557E-01 1.899226471E-10 3.166931439E-10 4.384045349E-10
 1.653834581E-01 1.899557733E-10 3.167878182E-10 4.385582453E-10
 1.705053449E-01 1.899850971E-10 3.168767748E-10 4.387043784E-10
 1.757858396E-01 1.900102992E-10 3.169594864E-10 4.388421848E-10
 1.812298745E-01 1.900310603E-10 3.170353424E-10 4.389708597E-10
 1.868425012E-01 1.900470475E-10 3.171037599E-10 4.390895425E-10
 1.926289499E-01 1.900578445E-10 3.171640728E-10 4.391972896E-10
 1.985946149E-01 1.900630903E-10 3.172156149E-10 4.392931574E-10
 2.047450244E-01 1.900623131E-10 3.172575813E-10 4.393760633E-10
 2.110859156E-01 1.900550967E-10 3.172892227E-10 4.394449249E-10
 2.176231891E-01 1.900409274E-10 3.173096785E-10 4.394984932E-10
 2.243629098E-01 1.900193197E-10 3.173180330E-10 4.395355191E-10
 2.313113511E-01 1.899897323E-10 3.173133978E-10 4.395546982E-10
 2.384749949E-01 1.899515961E-10 3.172947183E-10 4.395545872E-10
 2.458604872E-01 1.899043284E-10 3.172609953E-10 4.395337150E-10
 2.534747124E-01 1.898473323E-10 3.172111185E-10 4.394905273E-10
 2.613247335E-01 1.897799418E-10 3.171439500E-10 4.394234143E-10
 2.694178820E-01 1.897015184E-10 3.170582685E-10 4.393306274E-10
 2.777616680E-01 1.896113683E-10 3.169528806E-10 4.392104458E-10
 2.863638699E-01 1.895088669E-10 3.168265650E-10 4.390611763E-10
 2.952324748E-01 1.893935148E-10 3.166784612E-10 4.388814590E-10
 3.043757379E-01 1.892643264E-10 3.165067375E-10 4.386687680E-10
 3.138021529E-01 1.891202750E-10 3.163095896E-10 4.384204666E-10
 3.235205114E-01 1.889608470E-10 3.160859907E-10 4.381350560E-10
 3.335398436E-01 1.887854040E-10 3.158346640E-10 4.378107599E-10
 3.438694775E-01 1.885932105E-10 3.155542494E-10 4.374455242E-10
 3.545189798E-01 1.883835588E-10 3.152434425E-10 4.370374063E-10
 3.654983342E-01 1.881557826E-10 3.149008276E-10 4.365844353E-10
 3.768177032E-01 1.879092298E-10 3.145252114E-10 4.360846961E-10
 3.884876370E-01 1.876433314E-10 3.141153171E-10 4.355364680E-10
 4.005189836E-01 1.873575878E-10 3.136701732E-10 4.349381133E-10
 4.129229188E-01 1.870516242E-10 3.131888360E-10 4.342882998E-10
 4.257110059E-01 1.867251215E-10 3.126705561E-10 4.335857784E-10
 4.388951659E-01 1.863778715E-10 3.121146674E-10 4.328294667E-10
 4.524875879E-01 1.860097493E-10 3.115206704E-10 4.320185321E-10
 4.665009975E-01 1.856207271E-10 3.108882318E-10 4.311523083E-10
 4.809483886E-01 1.852109438E-10 3.102172130E-10 4.302304069E-10
 4.958432019E-01 1.847806907E-10 3.095077250E-10 4.292528555E-10
 5.111992955E-01 1.843304953E-10 3.087602951E-10 4.282200150E-10
 5.270310044E-01 1.838611347E-10 3.079757838E-10 4.271329124E-10
 5.433530211E-01 1.833736635E-10 3.071554400E-10 4.259930186E-10
 5.601804852E-01 1.828694834E-10 3.063010956E-10 4.248025820E-10
 5.775290728E-01 1.823503293E-10 3.054151099E-10 4.235644890E-10
 5.954149961E-01 1.818183520E-10 3.045003971E-10 4.222824868E-10
 6.138547659E-01 1.812761607E-10 3.035606211E-10 4.209612381E-10
 6.328656673E-01 1.807268779E-10 3.026001949E-10 4.196062942E-10
 6.524653435E-01 1.801741534E-10 3.016243089E-10 4.182244273E-10
 6.726719737E-01 1.796221644E-10 3.006388194E-10 4.168229928E-10
 6.935044527E-01 1.790759208E-10 2.996510262E-10 4.154118993E-10
 7.149820328E-01 1.785416259E-10 2.986694225E-10 4.140007503E-10
 7.371248007E-01 1.780250530E-10 2.977031677E-10 4.126045894E-10
 7.599533200E-01 1.775364439E-10 2.967637247E-10 4.112293284E-10
 7.834888697E-01 1.770786434E-10 2.958618073E-10 4.099106610E-10
 8.077532649E-01 1.766848612E-10 2.950210076E-10 4.086175009E-10
 8.327691555E-01 1.763091756E-10 2.942349697E-10 4.074980353E-10
 8.585597277E-01 1.761268215E-10 2.935877097E-10 4.062432613E-10
 8.851490617E-01 1.757546192E-10 2.929311516E-10 4.056980030E-10
 9.125618339E-01 1.779416059E-10 2.938903843E-10 4.042923496E-10
 9.408236146E-01 1.780368908E-10 2.938625732E-10 4.062281067E-10
 9.699606299E-01 1.640768077E-10 2.801575638E-10 3.829591644E-10
 1.000000000E+00 0.000000000E+00 0.000000000E+00 0.000000000E+00
ZONE T="FUN3D, SA-RC-QCR2013"
 4.999999987E-07 2.277477686E-11 1.836675603E-11 1.395873261E-11
 1.000465204E-06 3.650705016E-10 2.944116617E-10 2.237528357E-10
 1.501861107E-06 1.853880494E-09 1.495064739E-09 1.136248984E-09
 2.004654107E-06 5.884545295E-09 4.745599913E-09 3.606654975E-09
 2.509312253E-06 1.444655151E-08 1.165044239E-08 8.854333267E-09
 3.016304618E-06 3.016017303E-08 2.432271451E-08 1.848525422E-08
 3.526103228E-06 5.632448463E-08 4.542295784E-08 3.452142749E-08
 4.039182386E-06 9.697741632E-08 7.820757020E-08 5.943771342E-08
 4.556018666E-06 1.569687811E-07 1.265876790E-07 9.620656272E-08
 5.077094102E-06 2.420471503E-07 1.951992346E-07 1.483512904E-07
 5.602892543E-06 3.589620405E-07 2.894853708E-07 2.200086726E-07
 6.133903298E-06 5.155825420E-07 4.157921012E-07 3.160016888E-07
 6.670620678E-06 7.210340982E-07 5.814787301E-07 4.419233903E-07
 7.213543540E-06 9.858558769E-07 7.950445138E-07 6.042331506E-07
 7.763177564E-06 1.322178946E-06 1.066272603E-06 8.103662026E-07
 8.320033885E-06 1.743930397E-06 1.406394404E-06 1.068858410E-06
 8.884630006E-06 2.267062882E-06 1.828275003E-06 1.389487124E-06
 9.457491615E-06 2.909814384E-06 2.346622296E-06 1.783430434E-06
 1.003915168E-05 3.693000281E-06 2.978223392E-06 2.263446277E-06
 1.063015134E-05 4.640342013E-06 3.742207355E-06 2.844073151E-06
 1.123103993E-05 5.778831110E-06 4.660342256E-06 3.541854312E-06
 1.184237772E-05 7.139140052E-06 5.757364761E-06 4.375589015E-06
 1.246473221E-05 8.756076568E-06 7.061344149E-06 5.366611276E-06
 1.309868276E-05 1.066908681E-05 8.604091818E-06 6.539096830E-06
 1.374481872E-05 1.292280831E-05 1.042160602E-05 7.920403732E-06
 1.440374217E-05 1.556768257E-05 1.255456573E-05 9.541448890E-06
 1.507606521E-05 1.866062303E-05 1.504886677E-05 1.143711324E-05
 1.576241448E-05 2.226573088E-05 1.795620665E-05 1.364668424E-05
 1.646342571E-05 2.645508721E-05 2.133471571E-05 1.621434239E-05
 1.717975465E-05 3.130958430E-05 2.524962474E-05 1.918966336E-05
 1.791206523E-05 3.691980965E-05 2.977398799E-05 2.262816997E-05
 1.866104139E-05 4.338696817E-05 3.498942897E-05 2.659188794E-05
 1.942737617E-05 5.082385178E-05 4.098690260E-05 3.114995343E-05
 2.021178625E-05 5.935578884E-05 4.786748104E-05 3.637917325E-05
 2.101499740E-05 6.912160461E-05 5.574311945E-05 4.236463064E-05
 2.183776087E-05 8.027449803E-05 6.473736721E-05 4.920023275E-05
 2.268083881E-05 9.298290388E-05 7.498605555E-05 5.698919995E-05
 2.354501703E-05 1.074311003E-04 8.663778863E-05 6.584448420E-05
 2.443110134E-05 1.238196855E-04 9.985435463E-05 7.588902372E-05
 2.533991210E-05 1.423657523E-04 1.148108204E-04 8.725587395E-05
 2.627229696E-05 1.633026550E-04 1.316953567E-04 1.000880584E-04
 2.722912359E-05 1.868792169E-04 1.507086563E-04 1.145380957E-04
 2.821128328E-05 2.133585367E-04 1.720628643E-04 1.307671919E-04
 2.921968553E-05 2.430157037E-04 1.959798683E-04 1.489440183E-04
 3.025527258E-05 2.761349897E-04 2.226888610E-04 1.692427322E-04
 3.131900667E-05 3.130057012E-04 2.524231968E-04 1.918406779E-04
 3.241187733E-05 3.539171303E-04 2.854161430E-04 2.169151703E-04
 3.353489956E-05 3.991521662E-04 3.218958445E-04 2.446395520E-04
 3.468912109E-05 4.489795829E-04 3.620790667E-04 2.751785796E-04
 3.587561514E-05 5.036453367E-04 4.061641230E-04 3.086829965E-04
 3.709548400E-05 5.633624969E-04 4.543229006E-04 3.452833625E-04
 3.834985910E-05 6.283004186E-04 5.066919257E-04 3.850835201E-04
 3.963991549E-05 6.985735963E-04 5.633635446E-04 4.281535803E-04
 4.096685007E-05 7.742302259E-04 6.243765820E-04 4.745230544E-04
 4.233189611E-05 8.552414947E-04 6.897078711E-04 5.241743638E-04
 4.373632328E-05 9.414923843E-04 7.592646289E-04 5.770369316E-04
 4.518143760E-05 1.032774569E-03 8.328787517E-04 6.329830503E-04
 4.666858513E-05 1.128782169E-03 9.103036718E-04 6.918252911E-04
 4.819914830E-05 1.229110989E-03 9.912133683E-04 7.533158641E-04
 4.977455319E-05 1.333262306E-03 1.075205626E-03 8.171491208E-04
 5.139626228E-05 1.440650667E-03 1.161808381E-03 8.829660947E-04
 5.306578896E-05 1.550615882E-03 1.250489033E-03 9.503623587E-04
 5.478467938E-05 1.662439434E-03 1.340668416E-03 1.018897397E-03
 5.655453788E-05 1.775363460E-03 1.431735116E-03 1.088106656E-03
 5.837701246E-05 1.888611703E-03 1.523063285E-03 1.157514635E-03
 6.025379116E-05 2.001411980E-03 1.614029752E-03 1.226647408E-03
 6.218662747E-05 2.113016322E-03 1.704032067E-03 1.295047347E-03
 6.417731493E-05 2.222723095E-03 1.792503637E-03 1.362283831E-03
 6.622770888E-05 2.329891082E-03 1.878927578E-03 1.427963842E-03
 6.833971565E-05 2.433953574E-03 1.962847309E-03 1.491740695E-03
 7.051529974E-05 2.534429776E-03 2.043874469E-03 1.553318696E-03
 7.275648386E-05 2.630925737E-03 2.121691825E-03 1.612457214E-03
 7.506535621E-05 2.723139478E-03 2.196055371E-03 1.668970915E-03
 7.744405593E-05 2.810856560E-03 2.266792580E-03 1.722728019E-03
 7.989480946E-05 2.893944969E-03 2.333796583E-03 1.773647848E-03