TITLE     = "SST-V results from WIND"
VARIABLES = "x/Dj","y/Dj","u/Uj","v/Uj","u'v'/Uj^2","k/Uj^2"
ZONE T="x/Dj=2"
 1.999799967E+00 0.000000000E+00 9.946578741E-01 1.937327189E-36 -1.136780018E-21 2.154164180E-09
 1.999799967E+00 1.001963951E-02 9.946561456E-01 2.611626826E-07 -6.786810155E-13 2.153962786E-09
 1.999799967E+00 2.003927901E-02 9.946614504E-01 5.759571309E-07 -1.719784363E-12 2.153368817E-09
 1.999799967E+00 3.005892038E-02 9.946614504E-01 7.965969644E-07 1.303018457E-12 2.152416245E-09
 1.999799967E+00 4.007855803E-02 9.946597219E-01 9.129794307E-07 1.165913937E-12 2.151146150E-09
 1.999799967E+00 5.009819940E-02 9.946614504E-01 1.183975542E-06 -1.337067393E-12 2.149561862E-09
 1.999799967E+00 6.011760235E-02 9.946650267E-01 1.078957780E-06 1.298992787E-13 2.147662936E-09
 1.999799967E+00 7.013759762E-02 9.946667552E-01 1.265427159E-06 -2.023938525E-12 2.145459144E-09
 1.999799967E+00 8.015699685E-02 9.946739078E-01 1.283837378E-06 -2.462942827E-12 2.142947375E-09
 1.999799967E+00 9.017699957E-02 9.946774840E-01 1.409145625E-06 -4.133281580E-14 2.140121191E-09
 1.999799967E+00 1.001963988E-01 9.946739078E-01 1.370668201E-06 5.946930773E-13 2.136968158E-09
 1.999799967E+00 1.102157980E-01 9.946774840E-01 1.428039695E-06 -1.333504596E-12 2.133503818E-09
 1.999799967E+00 1.202358007E-01 9.946792126E-01 1.591834462E-06 -4.712581237E-13 2.129718624E-09
 1.999799967E+00 1.302551925E-01 9.946792126E-01 1.440981919E-06 -3.864420177E-13 2.125619458E-09
 1.999799967E+00 1.402751952E-01 9.946809411E-01 1.566224796E-06 -1.134998569E-14 2.121199216E-09
 1.999799967E+00 1.502946019E-01 9.946792126E-01 1.694163416E-06 3.748445375E-14 2.116461673E-09
 1.999799967E+00 1.603139937E-01 9.946792126E-01 1.751499440E-06 2.705006087E-13 2.111400388E-09
 1.999799967E+00 1.703339964E-01 9.946809411E-01 1.720996011E-06 -1.070899771E-12 2.106018249E-09
 1.999799967E+00 1.803534031E-01 9.946845174E-01 1.778535989E-06 -5.561316923E-13 2.100309482E-09
 1.999799967E+00 1.903734058E-01 9.946845174E-01 1.906681973E-06 2.724195381E-13 2.094276530E-09
 1.999799967E+00 2.003927976E-01 9.946827292E-01 2.097252718E-06 3.418503273E-13 2.087916950E-09
 1.999799967E+00 2.104121894E-01 9.946845174E-01 2.149415195E-06 -6.808376562E-13 2.081230299E-09
 1.999799967E+00 2.204322070E-01 9.946845174E-01 2.181744094E-06 -2.354299752E-13 2.074213468E-09
 1.999799967E+00 2.304515988E-01 9.946845174E-01 2.484544666E-06 3.940440910E-13 2.066872895E-09
 1.999799967E+00 2.404716015E-01 9.946827292E-01 2.555015953E-06 8.003346250E-13 2.059202364E-09
 1.999799967E+00 2.504910231E-01 9.946809411E-01 2.715331448E-06 5.792759393E-13 2.051195436E-09
 1.999799967E+00 2.605103850E-01 9.946792126E-01 3.033605026E-06 1.033761510E-12 2.042851888E-09
 1.999799967E+00 2.705304027E-01 9.946756363E-01 3.269585250E-06 1.211404891E-12 2.034165725E-09
 1.999799967E+00 2.805498242E-01 9.946720600E-01 3.371198090E-06 6.892374583E-13 2.025137169E-09
 1.999799967E+00 2.905698121E-01 9.946720600E-01 3.366058081E-06 -1.902457413E-13 2.015756229E-09
 1.999799967E+00 3.005892038E-01 9.946739078E-01 3.449273436E-06 -1.493550699E-13 2.006026456E-09
 1.999799967E+00 3.106086254E-01 9.946720600E-01 3.467688884E-06 9.552528039E-13 1.995944521E-09
 1.999799967E+00 3.206286132E-01 9.946703315E-01 3.682134093E-06 1.257673029E-13 1.985520193E-09
 1.999799967E+00 3.306480050E-01 9.946703315E-01 3.695586884E-06 4.968327724E-13 1.974737263E-09
 1.999799967E+00 3.406679928E-01 9.946667552E-01 3.659978802E-06 1.586641409E-12 1.963602170E-09
 1.999799967E+00 3.506874144E-01 9.946632981E-01 3.482399961E-06 1.445967478E-12 1.952105588E-09
 1.999799967E+00 3.607068062E-01 9.946597219E-01 3.574459242E-06 1.369108277E-12 1.941986127E-09
 1.999799967E+00 3.707267940E-01 9.946578741E-01 3.500638059E-06 2.003140231E-08 6.170621418E-07
 1.999799967E+00 3.807461858E-01 9.906114936E-01 -8.564746531E-05 1.888770930E-04 7.602547412E-04
 1.999799967E+00 3.907662034E-01 9.579422474E-01 3.689383448E-04 1.897414098E-03 5.128042772E-03
 1.999799967E+00 4.007855952E-01 9.155175090E-01 1.378590940E-03 3.821964609E-03 1.013555657E-02
 1.999799967E+00 4.108049870E-01 8.726462126E-01 2.414285904E-03 5.470017437E-03 1.458688546E-02
 1.999799967E+00 4.208250046E-01 8.306061625E-01 3.351701424E-03 6.821220741E-03 1.834332943E-02
 1.999799967E+00 4.308443964E-01 7.897323370E-01 4.151772708E-03 7.899235934E-03 2.142507210E-02
 1.999799967E+00 4.408644140E-01 7.501347065E-01 4.802428652E-03 8.733470924E-03 2.388590202E-02
 1.999799967E+00 4.508838058E-01 7.118397355E-01 5.302871112E-03 9.352825582E-03 2.578639798E-02
 1.999799967E+00 4.609031975E-01 6.748511195E-01 5.657107569E-03 9.783903137E-03 2.718694881E-02
 1.999799967E+00 4.709232152E-01 6.391563416E-01 5.871162750E-03 1.005107537E-02 2.814389393E-02
 1.999799967E+00 4.809426069E-01 6.047235131E-01 5.954129621E-03 1.017732546E-02 2.871296927E-02
 1.999799967E+00 4.909625649E-01 5.715348721E-01 5.913665053E-03 1.018239558E-02 2.894204855E-02
 1.999799967E+00 5.009820461E-01 5.395533442E-01 5.758915562E-03 1.008433569E-02 2.887697518E-02
 1.999799967E+00 5.110014081E-01 5.087558031E-01 5.498688202E-03 9.899371304E-03 2.855854854E-02
 1.999799967E+00 5.210213661E-01 4.791084528E-01 5.141439382E-03 9.642306715E-03 2.802374214E-02
 1.999799967E+00 5.310407877E-01 4.505831301E-01 4.695569165E-03 9.325682186E-03 2.730631642E-02
 1.999799967E+00 5.410608053E-01 4.231495857E-01 4.169071093E-03 8.961094543E-03 2.643642202E-02
 1.999799967E+00 5.510801673E-01 3.967795372E-01 3.569833469E-03 8.558984846E-03 2.544153295E-02
 1.999799967E+00 5.610996485E-01 3.714427352E-01 2.905317117E-03 8.128245361E-03 2.434607781E-02
 1.999799967E+00 5.711196065E-01 3.471127450E-01 2.182754455E-03 7.676581852E-03 2.317152731E-02
 1.999799967E+00 5.811389685E-01 3.237646222E-01 1.408397802E-03 7.211431861E-03 2.193771675E-02
 1.999799967E+00 5.911589861E-01 3.013682961E-01 5.893105408E-04 6.738541182E-03 2.066212706E-02
 1.999799967E+00 6.011759639E-01 2.798954546E-01 -2.683782368E-04 6.263318006E-03 1.936003566E-02
 1.999799967E+00 6.111959815E-01 2.593247294E-01 -1.158915227E-03 5.790359806E-03 1.804483682E-02
 1.999799967E+00 6.212159991E-01 2.396331131E-01 -2.076745732E-03 5.323553458E-03 1.672847196E-02
 1.999799967E+00 6.312359571E-01 2.207869589E-01 -3.016111208E-03 4.866110161E-03 1.542116236E-02
 1.999799967E+00 6.412559748E-01 2.027827054E-01 -3.972297069E-03 4.421072081E-03 1.413227431E-02
 1.999799967E+00 6.512759924E-01 1.855795830E-01 -4.940039013E-03 3.990501631E-03 1.286910288E-02
 1.999799967E+00 6.612960100E-01 1.691600531E-01 -5.914587062E-03 3.576257499E-03 1.163834240E-02
 1.999799967E+00 6.713160276E-01 1.534994692E-01 -6.891297642E-03 3.179776249E-03 1.044527441E-02
 1.999799967E+00 6.813359857E-01 1.386026293E-01 -7.865561172E-03 2.802812494E-03 9.296093136E-03
 1.999799967E+00 6.913560033E-01 1.244305149E-01 -8.832825348E-03 2.445717342E-03 8.193501271E-03
 1.999799967E+00 7.013760209E-01 1.109712869E-01 -9.788514115E-03 2.109221183E-03 7.141051814E-03
 1.999799967E+00 7.113959789E-01 9.821943194E-02 -1.072757877E-02 1.794003532E-03 6.142076571E-03
 1.999799967E+00 7.214159966E-01 8.616518974E-02 -1.164468285E-02 1.500310958E-03 5.198996514E-03
 1.999799967E+00 7.314360142E-01 7.479421794E-02 -1.253465097E-02 1.227984787E-03 4.313163459E-03
 1.999799967E+00 7.414560318E-01 6.414658576E-02 -1.338886935E-02 9.782923153E-04 3.489889903E-03
 1.999799967E+00 7.514700294E-01 5.423821509E-02 -1.419758890E-02 7.512709126E-04 2.731788438E-03
 1.999799967E+00 7.614899874E-01 4.509057105E-02 -1.495003514E-02 5.467347219E-04 2.040692139E-03
 1.999799967E+00 7.715100050E-01 3.685714304E-02 -1.562098600E-02 3.674858017E-04 1.428021700E-03
 1.999799967E+00 7.815300226E-01 2.974548005E-02 -1.617405191E-02 2.167238999E-04 9.056165582E-04
 1.999799967E+00 7.915500402E-01 2.403615788E-02 -1.656281389E-02 9.866110486E-05 4.848693497E-04
 1.999799967E+00 8.015700579E-01 2.041527815E-02 -1.671580970E-02 2.966728789E-05 1.961552480E-04
 1.999799967E+00 8.115899563E-01 1.878908090E-02 -1.664611883E-02 5.565102583E-06 5.483690256E-05
 1.999799967E+00 8.216099739E-01 1.846614666E-02 -1.646561548E-02 3.815576122E-07 8.479075404E-06
 1.999799967E+00 8.316299915E-01 1.849255711E-02 -1.625985466E-02 -1.562276863E-09 5.737670108E-07
 1.999799967E+00 8.416500092E-01 1.849344186E-02 -1.606265455E-02 5.193685482E-10 1.361853030E-08
 1.999799967E+00 8.516700268E-01 1.846526191E-02 -1.587454788E-02 2.760539367E-11 1.726085802E-10
 1.999799967E+00 8.616900444E-01 1.843955927E-02 -1.569032297E-02 6.044990463E-12 4.064810641E-11
 1.999799967E+00 8.717099428E-01 1.841704920E-02 -1.551003195E-02 5.623918432E-12 3.954309449E-11
 1.999799967E+00 8.817299604E-01 1.839418709E-02 -1.533394214E-02 5.596978176E-12 3.951197008E-11
 1.999799967E+00 8.917499781E-01 1.837132126E-02 -1.516157389E-02 5.552494662E-12 3.948933541E-11
 1.999799967E+00 9.017699957E-01 1.834863424E-02 -1.499292813E-02 5.498884768E-12 3.946701646E-11
 1.999799967E+00 9.117900133E-01 1.832594909E-02 -1.482830569E-02 5.420970964E-12 3.944438179E-11
 1.999799967E+00 9.218039513E-01 1.830379292E-02 -1.466749422E-02 5.375135233E-12 3.942143140E-11
 1.999799967E+00 9.318239689E-01 1.828163676E-02 -1.451006718E-02 5.335857190E-12 3.939848101E-11
 1.999799967E+00 9.418439865E-01 1.825930551E-02 -1.435577869E-02 5.291035839E-12 3.937521836E-11
 1.999799967E+00 9.518640041E-01 1.823750511E-02 -1.420432515E-02 5.235397619E-12 3.935132775E-11
 1.999799967E+00 9.618839622E-01 1.821570285E-02 -1.405678876E-02 5.189358925E-12 3.932712142E-11
 1.999799967E+00 9.719039798E-01 1.819407940E-02 -1.391228288E-02 5.140481357E-12 3.930259937E-11
 1.999799967E+00 9.819239974E-01 1.817245595E-02 -1.377022266E-02 5.084944618E-12 3.927808079E-11
 1.999799967E+00 9.919440150E-01 1.815100946E-02 -1.363114174E-02 5.013419367E-12 3.925324302E-11
 1.999799967E+00 1.001964092E+00 1.813009568E-02 -1.349540986E-02 4.955414985E-12 3.922840872E-11
 1.999799967E+00 1.011983991E+00 1.810918190E-02 -1.336164493E-02 4.906672724E-12 3.920389013E-11
 1.999799967E+00 1.022004008E+00 1.808826812E-02 -1.323103532E-02 4.875371808E-12 3.917968033E-11
 1.999799967E+00 1.032024026E+00 1.806752943E-02 -1.310295984E-02 4.830212185E-12 3.915547400E-11
 1.999799967E+00 1.042044044E+00 1.804679260E-02 -1.297639124E-02 4.776940128E-12 3.913158339E-11
 1.999799967E+00 1.052064061E+00 1.802640781E-02 -1.285375748E-02 4.718834264E-12 3.910800503E-11
 1.999799967E+00 1.062083960E+00 1.800620183E-02 -1.273227576E-02 4.665258197E-12 3.908442667E-11
 1.999799967E+00 1.072103977E+00 1.798635162E-02 -1.261371840E-02 4.624357754E-12 3.906116403E-11
 1.999799967E+00 1.082123995E+00 1.796632260E-02 -1.249707490E-02 4.586532976E-12 3.903789791E-11
 1.999799967E+00 1.092138052E+00 1.794647239E-02 -1.238243468E-02 4.551886212E-12 3.901495099E-11
 1.999799967E+00 1.102158070E+00 1.792679913E-02 -1.227031276E-02 4.507233562E-12 3.899168835E-11
 1.999799967E+00 1.112177968E+00 1.790712588E-02 -1.215958875E-02 4.457139085E-12 3.896873796E-11
 1.999799967E+00 1.122197986E+00 1.788780652E-02 -1.205164846E-02 4.422154049E-12 3.894579104E-11
 1.999799967E+00 1.132218003E+00 1.786848530E-02 -1.194470096E-02 4.392577014E-12 3.892284064E-11
 1.999799967E+00 1.142238021E+00 1.784916781E-02 -1.184062380E-02 4.360701904E-12 3.889989372E-11
 1.999799967E+00 1.152258039E+00 1.782984659E-02 -1.173748728E-02 4.328083031E-12 3.887663108E-11
 1.999799967E+00 1.162277937E+00 1.781070605E-02 -1.163695473E-02 4.283565256E-12 3.885304925E-11
 1.999799967E+00 1.172297955E+00 1.779191755E-02 -1.153752208E-02 4.233977752E-12 3.882947436E-11
 1.999799967E+00 1.182317972E+00 1.777330786E-02 -1.144018024E-02 4.189054919E-12 3.880526803E-11
 1.999799967E+00 1.192337990E+00 1.775469817E-02 -1.134441700E-02 4.147681330E-12 3.878105823E-11
 1.999799967E+00 1.202358007E+00 1.773644052E-02 -1.124994643E-02 4.109924207E-12 3.875653964E-11
 1.999799967E+00 1.212378025E+00 1.771820150E-02 -1.115781628E-02 4.078589896E-12 3.873170187E-11
 1.999799967E+00 1.222398043E+00 1.770005375E-02 -1.106591616E-02 4.047289413E-12 3.870686757E-11
 1.999799967E+00 1.232418060E+00 1.768208109E-02 -1.097725984E-02 4.015988497E-12 3.868266124E-11
 1.999799967E+00 1.242438078E+00 1.766410843E-02 -1.088860352E-02 3.984687580E-12 3.865845491E-11
 1.999799967E+00 1.252451897E+00 1.764638349E-02 -1.080228575E-02 3.951020934E-12 3.863456430E-11
 1.999799967E+00 1.262471914E+00 1.762878522E-02 -1.071699709E-02 3.916339909E-12 3.861098594E-11
 1.999799967E+00 1.272491932E+00 1.761125401E-02 -1.063247025E-02 3.883348938E-12 3.858771983E-11
 1.999799967E+00 1.282511950E+00 1.759397425E-02 -1.055060234E-02 3.856409116E-12 3.856508862E-11
 1.999799967E+00 1.292531967E+00 1.757671125E-02 -1.046871673E-02 3.829468860E-12 3.854213823E-11
 1.999799967E+00 1.302551985E+00 1.755948178E-02 -1.038902812E-02 3.800534106E-12 3.851981928E-11
 1.999799967E+00 1.312572002E+00 1.754230820E-02 -1.031045709E-02 3.770585406E-12 3.849749686E-11
 1.999799967E+00 1.322592020E+00 1.752513275E-02 -1.023190375E-02 3.740636707E-12 3.847517790E-11
 1.999799967E+00 1.332612038E+00 1.750840060E-02 -1.015650481E-02 3.709437705E-12 3.845317120E-11
 1.999799967E+00 1.342632055E+00 1.749167033E-02 -1.008110587E-02 3.678204442E-12 3.843085225E-11
 1.999799967E+00 1.352652073E+00 1.747499220E-02 -1.000648737E-02 3.645923407E-12 3.840884555E-11
 1.999799967E+00 1.362671971E+00 1.745845564E-02 -9.934225120E-03 3.610431398E-12 3.838652660E-11
 1.999799967E+00 1.372691989E+00 1.744191721E-02 -9.861963801E-03 3.574939173E-12 3.836420417E-11
 1.999799967E+00 1.382712007E+00 1.742561162E-02 -9.790925309E-03 3.539548212E-12 3.834188522E-11
 1.999799967E+00 1.392732024E+00 1.740969531E-02 -9.721800685E-03 3.504360647E-12 3.831861911E-11
 1.999799967E+00 1.402752042E+00 1.739376038E-02 -9.652676992E-03 3.469172649E-12 3.829567219E-11
 1.999799967E+00 1.412771940E+00 1.737800427E-02 -9.584792890E-03 3.438040868E-12 3.827272180E-11
 1.999799967E+00 1.422785997E+00 1.736249588E-02 -9.518592618E-03 3.412452612E-12 3.824945916E-11
 1.999799967E+00 1.432806015E+00 1.734698750E-02 -9.452410042E-03 3.386898401E-12 3.822651223E-11
 1.999799967E+00 1.442826033E+00 1.733154804E-02 -9.387220256E-03 3.359542245E-12 3.820356184E-11
 1.999799967E+00 1.452845931E+00 1.731628738E-02 -9.323980659E-03 3.328758710E-12 3.818186739E-11
 1.999799967E+00 1.462865949E+00 1.730102859E-02 -9.260722436E-03 3.297978644E-12 3.815986416E-11
 1.999799967E+00 1.472885966E+00 1.728583872E-02 -9.197873063E-03 3.267380940E-12 3.813848543E-11
 1.999799967E+00 1.482905984E+00 1.727119647E-02 -9.137451649E-03 3.237905603E-12 3.811773813E-11
 1.999799967E+00 1.492926002E+00 1.725655794E-02 -9.077029303E-03 3.208430266E-12 3.809699084E-11
 1.999799967E+00 1.502945900E+00 1.724191755E-02 -9.016607888E-03 3.178954929E-12 3.807655580E-11
 1.999799967E+00 1.512965918E+00 1.722736657E-02 -8.958454244E-03 3.146372919E-12 3.805643647E-11
 1.999799967E+00 1.522985935E+00 1.721284911E-02 -8.900797926E-03 3.113125426E-12 3.803662940E-11
 1.999799967E+00 1.533005953E+00 1.719833538E-02 -8.843140677E-03 3.079877499E-12 3.801651008E-11
 1.999799967E+00 1.543025970E+00 1.718410105E-02 -8.786493912E-03 3.044713353E-12 3.799670301E-11
 1.999799967E+00 1.553045988E+00 1.717036590E-02 -8.731495589E-03 3.006392010E-12 3.797689940E-11
 1.999799967E+00 1.563066006E+00 1.715661027E-02 -8.676514961E-03 2.968073920E-12 3.795740805E-11
 1.999799967E+00 1.573086023E+00 1.714285649E-02 -8.621517569E-03 2.929752578E-12 3.793760098E-11
 1.999799967E+00 1.583105922E+00 1.712951064E-02 -8.568540215E-03 2.901734191E-12 3.791716940E-11
 1.999799967E+00 1.593120098E+00 1.711625233E-02 -8.516058326E-03 2.876274306E-12 3.789673783E-11
 1.999799967E+00 1.603140116E+00 1.710299589E-02 -8.463576436E-03 2.850818106E-12 3.787598707E-11
 1.999799967E+00 1.613160133E+00 1.708977297E-02 -8.411307819E-03 2.825419152E-12 3.785555203E-11
 1.999799967E+00 1.623179913E+00 1.707699336E-02 -8.361379616E-03 2.800622147E-12 3.783574842E-11
 1.999799967E+00 1.633199930E+00 1.706419699E-02 -8.311449550E-03 2.775821240E-12 3.781594135E-11
 1.999799967E+00 1.643219948E+00 1.705141738E-02 -8.261520416E-03 2.751024018E-12 3.779613428E-11
 1.999799967E+00 1.653239965E+00 1.703876257E-02 -8.212123066E-03 2.725841688E-12 3.777664639E-11
 1.999799967E+00 1.663259983E+00 1.702651568E-02 -8.164498024E-03 2.699388239E-12 3.775872670E-11
 1.999799967E+00 1.673280001E+00 1.701428555E-02 -8.116890676E-03 2.672934790E-12 3.774080701E-11
 1.999799967E+00 1.683300018E+00 1.700203866E-02 -8.069266565E-03 2.646484594E-12 3.772289078E-11
 1.999799967E+00 1.693320036E+00 1.698996872E-02 -8.022155613E-03 2.620548310E-12 3.770528681E-11
 1.999799967E+00 1.703340054E+00 1.697848178E-02 -7.976763882E-03 2.596366264E-12 3.768893531E-11
 1.999799967E+00 1.713360071E+00 1.696697995E-02 -7.931372151E-03 2.572180750E-12 3.767227502E-11
 1.999799967E+00 1.723380089E+00 1.695549488E-02 -7.885979488E-03 2.547995669E-12 3.765561127E-11
 1.999799967E+00 1.733399868E+00 1.694400795E-02 -7.840747945E-03 2.523854173E-12 3.763895098E-11
 1.999799967E+00 1.743419886E+00 1.693287864E-02 -7.797589991E-03 2.500280582E-12 3.762291867E-11
 1.999799967E+00 1.753434062E+00 1.692173071E-02 -7.754431106E-03 2.476706991E-12 3.760688636E-11
 1.999799967E+00 1.763454080E+00 1.691058092E-02 -7.711272221E-03 2.453133400E-12 3.759053832E-11
 1.999799967E+00 1.773473978E+00 1.689944975E-02 -7.668096572E-03 2.429556556E-12 3.757450601E-11
 1.999799967E+00 1.783493996E+00 1.688881591E-02 -7.626568433E-03 2.409062533E-12 3.755753000E-11
 1.999799967E+00 1.793514013E+00 1.687832363E-02 -7.585572544E-03 2.389561856E-12 3.754055400E-11
 1.999799967E+00 1.803534031E+00 1.686784811E-02 -7.544576190E-03 2.370064865E-12 3.752357799E-11
 1.999799967E+00 1.813554049E+00 1.685737260E-02 -7.503580302E-03 2.350564405E-12 3.750660199E-11
 1.999799967E+00 1.823574066E+00 1.684691571E-02 -7.463151589E-03 2.330857729E-12 3.748962599E-11
 1.999799967E+00 1.833594084E+00 1.683651097E-02 -7.424264215E-03 2.310590087E-12 3.747328142E-11
 1.999799967E+00 1.843614101E+00 1.682610810E-02 -7.385377772E-03 2.290325915E-12 3.745724564E-11
 1.999799967E+00 1.853634119E+00 1.681570336E-02 -7.346490398E-03 2.270061526E-12 3.744090107E-11
 1.999799967E+00 1.863654137E+00 1.680530049E-02 -7.307603955E-03 2.249797354E-12 3.742454957E-11
 1.999799967E+00 1.873673916E+00 1.679535583E-02 -7.269974798E-03 2.228194192E-12 3.740946095E-11
 1.999799967E+00 1.883693933E+00 1.678571478E-02 -7.233127020E-03 2.205763350E-12 3.739500029E-11
 1.999799967E+00 1.893713951E+00 1.677607186E-02 -7.196278311E-03 2.183335760E-12 3.738085536E-11
 1.999799967E+00 1.903733969E+00 1.676641218E-02 -7.159411442E-03 2.160907737E-12 3.736639123E-11
 1.999799967E+00 1.913753986E+00 1.675677113E-02 -7.122562733E-03 2.138476896E-12 3.735224630E-11
 1.999799967E+00 1.923767924E+00 1.674735919E-02 -7.087185513E-03 2.117489127E-12 3.733935730E-11
 1.999799967E+00 1.933787942E+00 1.673799939E-02 -7.052215282E-03 2.096900344E-12 3.732678056E-11
 1.999799967E+00 1.943807960E+00 1.672866009E-02 -7.017245516E-03 2.076311562E-12 3.731420728E-11
 1.999799967E+00 1.953827977E+00 1.671930216E-02 -6.982258055E-03 2.055726249E-12 3.730163053E-11
 1.999799967E+00 1.963847995E+00 1.670994237E-02 -6.947288290E-03 2.035137250E-12 3.728905726E-11
 1.999799967E+00 1.973868012E+00 1.670111530E-02 -6.913701072E-03 2.014869391E-12 3.727742420E-11
 1.999799967E+00 1.983888030E+00 1.669243164E-02 -6.880556699E-03 1.994703231E-12 3.726579462E-11
 1.999799967E+00 1.993908048E+00 1.668374613E-02 -6.847394630E-03 1.974536853E-12 3.725416503E-11
 1.999799967E+00 2.003928185E+00 1.667507924E-02 -6.814250257E-03 1.954370476E-12 3.724252851E-11
 1.999799967E+00 2.013947964E+00 1.666639559E-02 -6.781088188E-03 1.934204316E-12 3.723089892E-11
 1.999799967E+00 2.023967981E+00 1.665792242E-02 -6.748901214E-03 1.915119755E-12 3.721926586E-11
 1.999799967E+00 2.033987999E+00 1.664962806E-02 -6.717511453E-03 1.896934216E-12 3.720763628E-11
 1.999799967E+00 2.044008017E+00 1.664133370E-02 -6.686139852E-03 1.878748676E-12 3.719569097E-11
 1.999799967E+00 2.054028034E+00 1.663303934E-02 -6.654750090E-03 1.860563136E-12 3.718405792E-11
 1.999799967E+00 2.064048052E+00 1.662474312E-02 -6.623360794E-03 1.842377596E-12 3.717242486E-11
 1.999799967E+00 2.074068069E+00 1.661651954E-02 -6.592183840E-03 1.824171890E-12 3.716047955E-11
 1.999799967E+00 2.084081888E+00 1.660891622E-02 -6.562459748E-03 1.805830875E-12 3.714696259E-11
 1.999799967E+00 2.094101906E+00 1.660131104E-02 -6.532736588E-03 1.787489861E-12 3.713375787E-11
 1.999799967E+00 2.104121923E+00 1.659370773E-02 -6.503012963E-03 1.769152208E-12 3.712055316E-11
 1.999799967E+00 2.114141941E+00 1.658608578E-02 -6.473307498E-03 1.750811301E-12 3.710703619E-11
 1.999799967E+00 2.124161959E+00 1.657848433E-02 -6.443583872E-03 1.732470287E-12 3.709383495E-11
 1.999799967E+00 2.134181976E+00 1.657107286E-02 -6.414693315E-03 1.716481883E-12 3.708094595E-11
 1.999799967E+00 2.144201994E+00 1.656387746E-02 -6.386671215E-03 1.702859641E-12 3.706836921E-11
 1.999799967E+00 2.154222012E+00 1.655666530E-02 -6.358631421E-03 1.689237400E-12 3.705579246E-11
 1.999799967E+00 2.164242029E+00 1.654946804E-02 -6.330609322E-03 1.675615267E-12 3.704321919E-11
 1.999799967E+00 2.174262047E+00 1.654227264E-02 -6.302569993E-03 1.661992917E-12 3.703064244E-11
 1.999799967E+00 2.184281826E+00 1.653505862E-02 -6.274548359E-03 1.648370784E-12 3.701806917E-11
 1.999799967E+00 2.194302082E+00 1.652807556E-02 -6.247483194E-03 1.633548548E-12 3.700643958E-11
 1.999799967E+00 2.204321861E+00 1.652119868E-02 -6.220932119E-03 1.618084030E-12 3.699543449E-11
 1.999799967E+00 2.214342117E+00 1.651432179E-02 -6.194381509E-03 1.602619621E-12 3.698442941E-11
 1.999799967E+00 2.224361897E+00 1.650744490E-02 -6.167830899E-03 1.587151742E-12 3.697342779E-11
 1.999799967E+00 2.234382153E+00 1.650056615E-02 -6.141279824E-03 1.571687442E-12 3.696211046E-11
 1.999799967E+00 2.244401932E+00 1.649369113E-02 -6.114728749E-03 1.556222924E-12 3.695110884E-11
 1.999799967E+00 2.254415989E+00 1.648714952E-02 -6.089011207E-03 1.541589989E-12 3.694104744E-11
 1.999799967E+00 2.264436007E+00 1.648087427E-02 -6.063931156E-03 1.527572339E-12 3.693161749E-11
 1.999799967E+00 2.274456024E+00 1.647461951E-02 -6.038833875E-03 1.513554581E-12 3.692218753E-11
 1.999799967E+00 2.284476042E+00 1.646834426E-02 -6.013754290E-03 1.499533462E-12 3.691275757E-11
 1.999799967E+00 2.294496059E+00 1.646207087E-02 -5.988674238E-03 1.485515920E-12 3.690332415E-11
 1.999799967E+00 2.304516077E+00 1.645579562E-02 -5.963576958E-03 1.471498162E-12 3.689389419E-11
 1.999799967E+00 2.314535856E+00 1.644957624E-02 -5.938868970E-03 1.458622936E-12 3.688477648E-11
 1.999799967E+00 2.324555874E+00 1.644349471E-02 -5.915225018E-03 1.448955539E-12 3.687691819E-11
 1.999799967E+00 2.334575891E+00 1.643739827E-02 -5.891562905E-03 1.439284672E-12 3.686874417E-11
 1.999799967E+00 2.344595909E+00 1.643131860E-02 -5.867918953E-03 1.429613914E-12 3.686057015E-11
 1.999799967E+00 2.354615927E+00 1.642524078E-02 -5.844257306E-03 1.419946517E-12 3.685271185E-11
 1.999799967E+00 2.364635944E+00 1.641914248E-02 -5.820612889E-03 1.410275759E-12 3.684453784E-11
 1.999799967E+00 2.374655962E+00 1.641306281E-02 -5.796951242E-03 1.400605001E-12 3.683636382E-11
 1.999799967E+00 2.384675980E+00 1.640726626E-02 -5.774158053E-03 1.389737717E-12 3.682882124E-11
 1.999799967E+00 2.394695997E+00 1.640159637E-02 -5.751719233E-03 1.378366713E-12 3.682158745E-11
 1.999799967E+00 2.404716015E+00 1.639594138E-02 -5.729298107E-03 1.366995709E-12 3.681435712E-11
 1.999799967E+00 2.414735794E+00 1.639026962E-02 -5.706859287E-03 1.355624705E-12 3.680712679E-11
 1.999799967E+00 2.424750090E+00 1.638459787E-02 -5.684420466E-03 1.344250232E-12 3.679989646E-11
 1.999799967E+00 2.434770107E+00 1.637894474E-02 -5.661999341E-03 1.332879228E-12 3.679266614E-11
 1.999799967E+00 2.444790125E+00 1.637327112E-02 -5.639560521E-03 1.321508224E-12 3.678543581E-11
 1.999799967E+00 2.454810143E+00 1.636793651E-02 -5.618185271E-03 1.309785613E-12 3.677851773E-11
 1.999799967E+00 2.464829922E+00 1.636265405E-02 -5.596951582E-03 1.298019201E-12 3.677160312E-11
 1.999799967E+00 2.474849939E+00 1.635737345E-02 -5.575717427E-03 1.286256149E-12 3.676468852E-11
 1.999799967E+00 2.484869957E+00 1.635207236E-02 -5.554484203E-03 1.274489520E-12 3.675745819E-11
 1.999799967E+00 2.494889975E+00 1.634679176E-02 -5.533250514E-03 1.262723107E-12 3.675054011E-11
 1.999799967E+00 2.504909992E+00 1.634151116E-02 -5.512016825E-03 1.250956587E-12 3.674362550E-11
 1.999799967E+00 2.514930010E+00 1.633622870E-02 -5.490765441E-03 1.239190066E-12 3.673670743E-11
 1.999799967E+00 2.524950027E+00 1.633131877E-02 -5.470453762E-03 1.229458484E-12 3.672979282E-11
 1.999799967E+00 2.534970045E+00 1.632653177E-02 -5.450372119E-03 1.220220322E-12 3.672287474E-11
 1.999799967E+00 2.544990063E+00 1.632172987E-02 -5.430273246E-03 1.210978908E-12 3.671627238E-11
 1.999799967E+00 2.555010080E+00 1.631692611E-02 -5.410173442E-03 1.201740855E-12 3.670935778E-11
 1.999799967E+00 2.565029860E+00 1.631212421E-02 -5.390074570E-03 1.192499333E-12 3.670243970E-11
 1.999799967E+00 2.575049877E+00 1.630732045E-02 -5.369992927E-03 1.183261171E-12 3.669552509E-11
 1.999799967E+00 2.585063934E+00 1.630253531E-02 -5.349893589E-03 1.174019757E-12 3.668892273E-11
 1.999799967E+00 2.595084190E+00 1.629783772E-02 -5.330272950E-03 1.166275626E-12 3.668200813E-11
 1.999799967E+00 2.605103970E+00 1.629328169E-02 -5.311237182E-03 1.160390685E-12 3.667509352E-11
 1.999799967E+00 2.615123987E+00 1.628874615E-02 -5.292218644E-03 1.154505853E-12 3.666849116E-11
 1.999799967E+00 2.625144005E+00 1.628419012E-02 -5.273183342E-03 1.148620912E-12 3.666157655E-11
 1.999799967E+00 2.635164022E+00 1.627965271E-02 -5.254147574E-03 1.142735971E-12 3.665465848E-11
 1.999799967E+00 2.645184040E+00 1.627509855E-02 -5.235129502E-03 1.136850922E-12 3.664805612E-11
 1.999799967E+00 2.655204058E+00 1.627055928E-02 -5.216093734E-03 1.130966089E-12 3.664114151E-11
 1.999799967E+00 2.665224075E+00 1.626600511E-02 -5.197057500E-03 1.125081148E-12 3.663453915E-11
 1.999799967E+00 2.675244093E+00 1.626157388E-02 -5.178855266E-03 1.119152297E-12 3.662762108E-11
 1.999799967E+00 2.685264111E+00 1.625715941E-02 -5.160864908E-03 1.113213254E-12 3.662039075E-11
 1.999799967E+00 2.695284128E+00 1.625276543E-02 -5.142874550E-03 1.107274212E-12 3.661347614E-11
 1.999799967E+00 2.705304146E+00 1.624835283E-02 -5.124866962E-03 1.101335277E-12 3.660655806E-11
 1.999799967E+00 2.715323925E+00 1.624393836E-02 -5.106877070E-03 1.095396126E-12 3.659964345E-11
 1.999799967E+00 2.725343943E+00 1.623954251E-02 -5.088887177E-03 1.089457084E-12 3.659272538E-11
 1.999799967E+00 2.735363960E+00 1.623512805E-02 -5.070896819E-03 1.083518149E-12 3.658549505E-11
 1.999799967E+00 2.745383978E+00 1.623073407E-02 -5.052889232E-03 1.077579107E-12 3.657858044E-11
 1.999799967E+00 2.755397797E+00 1.622651517E-02 -5.035714246E-03 1.070984339E-12 3.657103440E-11
 1.999799967E+00 2.765418053E+00 1.622233354E-02 -5.018663593E-03 1.064267815E-12 3.656317610E-11
 1.999799967E+00 2.775437832E+00 1.621815003E-02 -5.001630634E-03 1.057551399E-12 3.655531780E-11
 1.999799967E+00 2.785458088E+00 1.621396653E-02 -4.984579980E-03 1.050834875E-12 3.654745603E-11
 1.999799967E+00 2.795477867E+00 1.620978490E-02 -4.967547022E-03 1.044118459E-12 3.653959774E-11
 1.999799967E+00 2.805498123E+00 1.620560139E-02 -4.950514063E-03 1.037402044E-12 3.653173944E-11
 1.999799967E+00 2.815517902E+00 1.620141789E-02 -4.933462944E-03 1.030685520E-12 3.652388114E-11
 1.999799967E+00 2.825538158E+00 1.619723625E-02 -4.916430451E-03 1.023969104E-12 3.651601937E-11
 1.999799967E+00 2.835557938E+00 1.619319431E-02 -4.899893422E-03 1.016586663E-12 3.650816108E-11
 1.999799967E+00 2.845578194E+00 1.618925855E-02 -4.883693531E-03 1.008727715E-12 3.650030278E-11
 1.999799967E+00 2.855597973E+00 1.618532464E-02 -4.867511336E-03 1.000865298E-12 3.649244101E-11
 1.999799967E+00 2.865617990E+00 1.618139073E-02 -4.851329140E-03 9.930063499E-13 3.648489844E-11
 1.999799967E+00 2.875638008E+00 1.617745496E-02 -4.835146945E-03 9.851440410E-13 3.647703667E-11
 1.999799967E+00 2.885658026E+00 1.617352106E-02 -4.818964750E-03 9.772849847E-13 3.646918184E-11
 1.999799967E+00 2.895678043E+00 1.616958529E-02 -4.802764859E-03 9.694260368E-13 3.646132007E-11
 1.999799967E+00 2.905698061E+00 1.616563275E-02 -4.786582664E-03 9.615637279E-13 3.645346178E-11
 1.999799967E+00 2.915718079E+00 1.616169885E-02 -4.770400468E-03 9.537046717E-13 3.644560001E-11
 1.999799967E+00 2.925731897E+00 1.615824178E-02 -4.754962865E-03 9.455212221E-13 3.643836968E-11
 1.999799967E+00 2.935751915E+00 1.615480334E-02 -4.739542957E-03 9.373377725E-13 3.643082364E-11
 1.999799967E+00 2.945771933E+00 1.615134627E-02 -4.724122584E-03 9.291508535E-13 3.642359678E-11
 1.999799967E+00 2.955791950E+00 1.614788920E-02 -4.708702676E-03 9.209674039E-13 3.641636645E-11
 1.999799967E+00 2.965811968E+00 1.614445262E-02 -4.693282302E-03 9.127805933E-13 3.640882040E-11
 1.999799967E+00 2.975831985E+00 1.614099555E-02 -4.677844699E-03 9.045970353E-13 3.640159008E-11
 1.999799967E+00 2.985852003E+00 1.613754034E-02 -4.662424326E-03 8.964102247E-13 3.639404403E-11
 1.999799967E+00 2.995872021E+00 1.613410190E-02 -4.647004418E-03 8.882267751E-13 3.638681370E-11
 1.999799967E+00 3.005891800E+00 1.613064483E-02 -4.631637596E-03 8.800939578E-13 3.637958337E-11
 1.999799967E+00 3.015912056E+00 1.612736657E-02 -4.617050756E-03 8.728130523E-13 3.637235305E-11
 1.999799967E+00 3.025931835E+00 1.612408645E-02 -4.602463450E-03 8.655320384E-13 3.636543844E-11
 1.999799967E+00 3.035952091E+00 1.612080820E-02 -4.587876610E-03 8.582510787E-13 3.635852036E-11
 1.999799967E+00 3.045971870E+00 1.611752808E-02 -4.573307466E-03 8.509701190E-13 3.635160575E-11