VARIABLES = "r/D","u/U<sub>jet","u'v'/U<sub>jet</sub><sup>2","k/U<sub>jet</sub><sup>2","u'v'/k"
ZONE T = "Expt"
  -0.029335   0.789312  -0.001290   0.015627  -0.082562
  -0.003453   0.792527  -0.000926   0.015709  -0.058977
   0.022429   0.791980  -0.000589   0.015860  -0.037110
   0.048311   0.786001   0.000246   0.016349   0.015071
   0.074193   0.782581   0.001041   0.015457   0.067347
   0.100075   0.772421   0.001856   0.016187   0.114649
   0.125957   0.764230   0.002373   0.016520   0.143654
   0.151837   0.754561   0.002849   0.016823   0.169332
   0.177719   0.742049   0.003244   0.017460   0.185776
   0.203600   0.729175   0.003636   0.017361   0.209414
   0.229482   0.715487   0.003506   0.016895   0.207526
   0.255364   0.699334   0.004053   0.017205   0.235584
   0.281246   0.682039   0.004422   0.017761   0.248942
   0.307128   0.663680   0.005013   0.018164   0.275988
   0.333010   0.643626   0.005649   0.019234   0.293707
   0.358892   0.623100   0.006351   0.019745   0.321619
   0.384772   0.602198   0.006366   0.019515   0.326192
   0.410654   0.581146   0.006738   0.020358   0.330978
   0.436535   0.560681   0.006701   0.020500   0.326865
   0.462417   0.540055   0.006676   0.020558   0.324752
   0.488299   0.519274   0.006588   0.020560   0.320446
   0.514181   0.500687   0.006404   0.020314   0.315257
   0.540063   0.483973   0.006214   0.019110   0.325176
   0.565945   0.465043   0.006036   0.018812   0.320884
   0.591827   0.449869   0.005471   0.017150   0.319012
   0.617707   0.431525   0.005116   0.016694   0.306479
   0.643589   0.416008   0.004763   0.015731   0.302807
   0.669471   0.398681   0.004841   0.015580   0.310737
   0.695352   0.382960   0.004233   0.015230   0.277937
   0.721234   0.369366   0.004295   0.014598   0.294206
   0.747116   0.353347   0.004455   0.014642   0.304240
   0.772998   0.337415   0.003994   0.013443   0.297076
   0.798880   0.320238   0.003782   0.012585   0.300518
   0.824762   0.304518   0.003880   0.012402   0.312825
   0.850642   0.287532   0.003444   0.011547   0.298252
   0.876524   0.273801   0.003512   0.011748   0.298952
   0.902406   0.259329   0.003470   0.011107   0.312390
   0.928287   0.248337   0.003441   0.011081   0.310528
   0.954169   0.235756   0.003478   0.010882   0.319643
   0.980051   0.222904   0.003564   0.011050   0.322570
   1.005933   0.212371   0.003504   0.010767   0.325413
   1.031815   0.203316   0.003130   0.009625   0.325187
   1.057697   0.193442   0.002837   0.009531   0.297645
   1.083577   0.183149   0.002922   0.009544   0.306141
   1.109459   0.170197   0.002047   0.008514   0.240457
   1.135341   0.162272   0.002233   0.008922   0.250251
   1.161222   0.152019   0.002072   0.008121   0.255176
   1.187104   0.144752   0.001923   0.007255   0.265121
   1.212986   0.136740   0.001829   0.007173   0.255017
   1.238868   0.127638   0.001803   0.007154   0.251991
   1.264750   0.120029   0.001803   0.006709   0.268802
   1.290632   0.113875   0.001316   0.005738   0.229379
   1.316512   0.104031   0.001044   0.005682   0.183685
   1.342394   0.097813   0.001375   0.005208   0.263913
   1.368276   0.090501   0.001248   0.005480   0.227675
   1.394157   0.080824   0.001285   0.005144   0.249739
   1.420039   0.075259   0.001097   0.004793   0.228778
   1.445921   0.068486   0.001020   0.004576   0.223025
   1.471803   0.063081   0.000759   0.004348   0.174525
   1.497685   0.059438   0.000743   0.004356   0.170445
   1.523567   0.052164   0.000840   0.004132   0.203367
   1.549447   0.047141   0.000858   0.004621   0.185626
   1.575329   0.045530   0.000706   0.004197   0.168171
   1.601211   0.042171   0.000669   0.004604   0.145239
   1.627093   0.037856   0.000811   0.004211   0.192624
   1.652974   0.033290   0.000615   0.004143   0.148352
   1.678856   0.028202   0.000497   0.003713   0.133817
   1.704738   0.020399   0.000620   0.004101   0.151187
   1.730620   0.016375   0.000368   0.004468   0.082418
   1.756502   0.012433   0.000415   0.003876   0.107161
 VARIABLES = "r/D","u/U<sub>jet","u'v'/U<sub>jet</sub><sup>2","k/U<sub>jet</sub><sup>2","u'v'/k"
ZONE T = "Wind-US"
   0.000000   0.506609   0.000001   0.019060   0.000044
   0.015075   0.506496   0.000237   0.019063   0.012410
   0.030151   0.506152   0.000474   0.019072   0.024848
   0.045226   0.505580   0.000711   0.019088   0.037239
   0.060302   0.504782   0.000946   0.019108   0.049526
   0.075377   0.503757   0.001180   0.019135   0.061663
   0.090452   0.502511   0.001410   0.019166   0.073566
   0.105528   0.501050   0.001636   0.019202   0.085219
   0.120603   0.499376   0.001858   0.019242   0.096575
   0.135678   0.497497   0.002075   0.019285   0.107619
   0.150754   0.495418   0.002288   0.019331   0.118343
   0.165829   0.493148   0.002494   0.019379   0.128694
   0.180905   0.490690   0.002695   0.019428   0.138690
   0.195980   0.488055   0.002889   0.019478   0.148303
   0.211055   0.485249   0.003076   0.019528   0.157518
   0.226130   0.482280   0.003256   0.019577   0.166332
   0.241207   0.479156   0.003429   0.019625   0.174746
   0.256281   0.475887   0.003595   0.019670   0.182750
   0.271356   0.472478   0.003753   0.019713   0.190381
   0.286433   0.468938   0.003903   0.019752   0.197605
   0.301508   0.465276   0.004046   0.019787   0.204477
   0.316583   0.461499   0.004181   0.019817   0.210960
   0.331657   0.457615   0.004307   0.019842   0.217078
   0.346734   0.453628   0.004426   0.019862   0.222852
   0.361809   0.449551   0.004538   0.019876   0.228295
   0.376884   0.445388   0.004641   0.019883   0.233428
   0.391961   0.441145   0.004737   0.019884   0.238248
   0.407035   0.436831   0.004826   0.019877   0.242781
   0.422110   0.432450   0.004907   0.019864   0.247026
   0.437185   0.428008   0.004980   0.019843   0.250991
   0.452262   0.423512   0.005047   0.019814   0.254714
   0.467337   0.418967   0.005107   0.019778   0.258191
   0.482411   0.414380   0.005160   0.019735   0.261446
   0.497488   0.409754   0.005206   0.019683   0.264473
   0.512563   0.405092   0.005245   0.019624   0.267305
   0.527638   0.400403   0.005279   0.019556   0.269928
   0.542713   0.395688   0.005306   0.019482   0.272361
   0.557789   0.390954   0.005328   0.019399   0.274627
   0.572864   0.386203   0.005344   0.019309   0.276746
   0.587939   0.381439   0.005354   0.019212   0.278699
   0.603016   0.376664   0.005360   0.019107   0.280530
   0.618091   0.371883   0.005360   0.018996   0.282194
   0.633165   0.367099   0.005356   0.018877   0.283734
   0.648242   0.362314   0.005347   0.018751   0.285167
   0.663317   0.357533   0.005334   0.018619   0.286478
   0.678392   0.352755   0.005316   0.018481   0.287669
   0.693467   0.347987   0.005295   0.018337   0.288761
   0.708543   0.343227   0.005270   0.018186   0.289756
   0.723618   0.338480   0.005240   0.018030   0.290647
   0.738693   0.333748   0.005208   0.017869   0.291454
   0.753770   0.329032   0.005173   0.017702   0.292201
   0.768844   0.324333   0.005134   0.017530   0.292874
   0.783919   0.319653   0.005093   0.017354   0.293471
   0.798994   0.314996   0.005049   0.017173   0.294003
   0.814071   0.310360   0.005002   0.016988   0.294467
   0.829146   0.305749   0.004953   0.016799   0.294870
   0.844220   0.301163   0.004902   0.016606   0.295217
   0.859297   0.296603   0.004849   0.016409   0.295503
   0.874372   0.292071   0.004794   0.016209   0.295748
   0.889447   0.287568   0.004737   0.016006   0.295940
   0.904522   0.283094   0.004679   0.015801   0.296101
   0.919598   0.278651   0.004619   0.015592   0.296227
   0.934673   0.274238   0.004558   0.015382   0.296313
   0.949748   0.269858   0.004495   0.015169   0.296355
   0.964825   0.265510   0.004432   0.014954   0.296356
   0.979900   0.261196   0.004367   0.014737   0.296318
   0.994974   0.256917   0.004301   0.014519   0.296241
   1.010051   0.252671   0.004235   0.014300   0.296133
   1.025126   0.248460   0.004168   0.014079   0.296019
   1.040201   0.244286   0.004100   0.013858   0.295890
   1.055276   0.240147   0.004032   0.013636   0.295722
   1.070352   0.236043   0.003964   0.013413   0.295543
   1.085427   0.231977   0.003895   0.013189   0.295339
   1.100502   0.227948   0.003826   0.012966   0.295107
   1.115579   0.223955   0.003757   0.012742   0.294862
   1.130654   0.220000   0.003688   0.012519   0.294602
   1.145728   0.216082   0.003619   0.012295   0.294325
   1.160803   0.212202   0.003549   0.012072   0.294029
   1.175880   0.208361   0.003480   0.011849   0.293709
   1.190955   0.204554   0.003411   0.011627   0.293369
   1.206030   0.200789   0.003342   0.011405   0.293014
   1.221106   0.197061   0.003273   0.011185   0.292644
   1.236181   0.193371   0.003205   0.010965   0.292262
   1.251256   0.189719   0.003137   0.010746   0.291866
   1.266331   0.186108   0.003069   0.010529   0.291460
   1.281407   0.182534   0.003001   0.010313   0.291045
   1.296482   0.178998   0.002935   0.010098   0.290617
   1.311557   0.175501   0.002868   0.009884   0.290179
   1.326634   0.172040   0.002802   0.009672   0.289732
   1.341709   0.168619   0.002737   0.009462   0.289273
   1.356783   0.165236   0.002672   0.009253   0.288808
   1.371860   0.161890   0.002608   0.009046   0.288333
   1.386935   0.158583   0.002545   0.008841   0.287849
   1.402010   0.155315   0.002482   0.008638   0.287355
   1.417085   0.152084   0.002420   0.008437   0.286857
   1.432161   0.148892   0.002359   0.008238   0.286352
   1.447236   0.145738   0.002298   0.008041   0.285838
   1.462311   0.142621   0.002238   0.007846   0.285319
   1.477388   0.139541   0.002179   0.007653   0.284786
   1.492463   0.136497   0.002121   0.007462   0.284238
   1.507537   0.133491   0.002063   0.007273   0.283678
   1.522612   0.130520   0.002006   0.007087   0.283112
   1.537689   0.127584   0.001950   0.006903   0.282541
   1.552764   0.124692   0.001895   0.006722   0.281969
   1.567839   0.121836   0.001841   0.006543   0.281391
   1.582915   0.119013   0.001788   0.006366   0.280806
   1.597990   0.116223   0.001735   0.006191   0.280212
   1.613065   0.113470   0.001683   0.006019   0.279615
   1.628142   0.110760   0.001632   0.005850   0.279018
   1.643217   0.108081   0.001582   0.005683   0.278411
   1.658291   0.105432   0.001533   0.005518   0.277793
   1.673366   0.102825   0.001485   0.005356   0.277177
   1.688443   0.100254   0.001437   0.005197   0.276554
   1.703518   0.097711   0.001391   0.005040   0.275919
   1.718593   0.095207   0.001345   0.004885   0.275282
   1.733669   0.092740   0.001300   0.004734   0.274641
   1.748744   0.090298   0.001256   0.004584   0.273983
   1.763819   0.087900   0.001213   0.004437   0.273329
   1.778894   0.085533   0.001171   0.004293   0.272666
   1.793970   0.083190   0.001129   0.004151   0.271982
   1.809045   0.080898   0.001089   0.004013   0.271312
   1.824120   0.078625   0.001049   0.003875   0.270616
   1.839197   0.076393   0.001010   0.003742   0.269922
   1.854272   0.074192   0.000972   0.003610   0.269216
   1.869346   0.072018   0.000935   0.003481   0.268494
   1.884421   0.069888   0.000898   0.003355   0.267775
   1.899498   0.067772   0.000862   0.003230   0.267024
   1.914573   0.065712   0.000828   0.003109   0.266295
   1.929648   0.063659   0.000794   0.002989   0.265517
   1.944724   0.061664   0.000761   0.002873   0.264779
   1.959799   0.059676   0.000728   0.002758   0.263985
   1.974882   0.057744   0.000697   0.002647   0.263223
   1.989941   0.055817   0.000666   0.002537   0.262400
   2.005020   0.053949   0.000636   0.002431   0.261603
   2.020098   0.052083   0.000606   0.002325   0.260733
   2.035177   0.050280   0.000578   0.002224   0.259900
   2.050256   0.048478   0.000550   0.002124   0.258989
   2.065335   0.046735   0.000523   0.002027   0.258111
   2.080394   0.045001   0.000497   0.001932   0.257164
   2.095472   0.043313   0.000471   0.001840   0.256235
   2.110551   0.041648   0.000446   0.001749   0.255267
   2.125630   0.040012   0.000422   0.001661   0.254263
   2.140709   0.038419   0.000399   0.001576   0.253254
   2.155787   0.036829   0.000376   0.001491   0.252140
   2.170846   0.035311   0.000354   0.001412   0.251071
   2.185925   0.033792   0.000333   0.001332   0.249874
   2.201004   0.032322   0.000312   0.001256   0.248666
   2.216083   0.030882   0.000292   0.001182   0.247393
   2.231161   0.029451   0.000273   0.001109   0.245977
   2.246240   0.028093   0.000255   0.001041   0.244612
   2.261299   0.026736   0.000236   0.000973   0.243057
   2.276378   0.025423   0.000219   0.000908   0.241443
   2.291457   0.024155   0.000203   0.000845   0.239773
   2.306535   0.022886   0.000186   0.000783   0.237840
   2.321614   0.021695   0.000171   0.000726   0.235922
   2.336693   0.020523   0.000157   0.000670   0.233771
   2.351752   0.019351   0.000142   0.000614   0.231230
   2.366831   0.018286   0.000129   0.000565   0.228782
   2.381909   0.017222   0.000116   0.000516   0.225866
   2.396988   0.016169   0.000104   0.000467   0.222407
   2.412067   0.015229   0.000093   0.000424   0.219039
   2.427126   0.014289   0.000082   0.000382   0.214921
   2.442205   0.013360   0.000071   0.000340   0.209885
   2.457283   0.012567   0.000063   0.000305   0.205147
   2.472362   0.011775   0.000054   0.000270   0.199176
   2.487441   0.010982   0.000045   0.000235   0.191415
   2.502520   0.010356   0.000038   0.000207   0.185456
   2.517579   0.009741   0.000032   0.000179   0.178011
   2.532657   0.009126   0.000026   0.000152   0.167901
   2.547736   0.008639   0.000021   0.000130   0.160366
   2.562815   0.008213   0.000017   0.000111   0.153864
   2.577894   0.007788   0.000013   0.000092   0.144641
   2.592973   0.007405   0.000010   0.000075   0.133809
   2.608032   0.007134   0.000008   0.000063   0.127884
   2.623110   0.006863   0.000006   0.000051   0.119241
   2.638189   0.006592   0.000004   0.000039   0.105453
   2.653268   0.006439   0.000003   0.000032   0.096113
   2.668347   0.006329   0.000002   0.000026   0.088080
   2.683425   0.006220   0.000002   0.000020   0.075321
   2.698484   0.006114   0.000001   0.000014   0.053278
   2.713563   0.006095   0.000001   0.000012   0.048517
   2.728642   0.006076   0.000000   0.000010   0.041353
   2.743721   0.006057   0.000000   0.000007   0.029354
   2.758799   0.006043   0.000000   0.000005   0.011301
   2.773878   0.006050   0.000000   0.000004   0.009124
   2.788937   0.006057   0.000000   0.000003   0.005878
   2.804016   0.006064   0.000000   0.000003   0.000517
   2.819094   0.006070   0.000000   0.000002   0.007364
   2.834173   0.006075   0.000000   0.000002   0.006116
   2.849252   0.006079   0.000000   0.000001   0.004298
   2.864331   0.006084   0.000000   0.000001   0.001401
   2.879390   0.006088   0.000000   0.000001   0.003318
   2.894469   0.006088   0.000000   0.000001   0.006811
   2.909547   0.006088   0.000000   0.000001   0.011668
   2.924626   0.006088   0.000000   0.000000   0.018880
   2.939705   0.006089   0.000000   0.000000   0.030711
   2.954783   0.006086   0.000000   0.000000   0.035761
   2.969842   0.006083   0.000000   0.000000   0.040624
   2.984921   0.006080   0.000000   0.000000   0.047453
   3.000000   0.006077   0.000000   0.000000   0.057743
 VARIABLES = "r/D","u/U<sub>jet","u'v'/U<sub>jet</sub><sup>2","k/U<sub>jet</sub><sup>2","u'v'/k"
ZONE T = "FUN3D"
   0.001000   0.502438   0.000022   0.018799   0.001195
   0.002998   0.502433   0.000057   0.018799   0.003007
   0.004991   0.502429   0.000083   0.018799   0.004439
   0.006981   0.502415   0.000114   0.018799   0.006084
   0.008966   0.502397   0.000146   0.018800   0.007749
   0.010948   0.502378   0.000177   0.018800   0.009422
   0.012925   0.502351   0.000209   0.018801   0.011097
   0.014899   0.502324   0.000240   0.018802   0.012771
   0.016869   0.502292   0.000272   0.018803   0.014444
   0.018836   0.502255   0.000303   0.018804   0.016113
   0.020798   0.502214   0.000334   0.018805   0.017780
   0.022758   0.502173   0.000366   0.018806   0.019443
   0.024714   0.502123   0.000397   0.018807   0.021102
   0.026666   0.502073   0.000428   0.018809   0.022758
   0.028615   0.502018   0.000459   0.018810   0.024410
   0.030561   0.501958   0.000490   0.018812   0.026057
   0.032504   0.501895   0.000521   0.018814   0.027701
   0.034444   0.501826   0.000552   0.018815   0.029341
   0.036381   0.501758   0.000583   0.018817   0.030976
   0.038314   0.501685   0.000614   0.018819   0.032607
   0.040245   0.501605   0.000644   0.018821   0.034233
   0.042173   0.501525   0.000675   0.018824   0.035855
   0.044099   0.501438   0.000705   0.018826   0.037473
   0.046021   0.501347   0.000736   0.018828   0.039086
   0.047941   0.501256   0.000766   0.018831   0.040695
   0.049859   0.501160   0.000797   0.018834   0.042299
   0.051774   0.501059   0.000827   0.018836   0.043899
   0.053686   0.500959   0.000857   0.018839   0.045494
   0.055597   0.500849   0.000887   0.018842   0.047084
   0.057505   0.500740   0.000917   0.018845   0.048670
   0.059411   0.500626   0.000947   0.018848   0.050251
   0.061314   0.500507   0.000977   0.018851   0.051827
   0.063216   0.500389   0.001007   0.018854   0.053398
   0.065115   0.500265   0.001037   0.018858   0.054965
   0.067012   0.500135   0.001066   0.018861   0.056527
   0.068908   0.500005   0.001096   0.018865   0.058084
   0.070802   0.499868   0.001125   0.018868   0.059637
   0.072694   0.499731   0.001155   0.018872   0.061184
   0.074584   0.499590   0.001184   0.018875   0.062726
   0.076473   0.499444   0.001213   0.018879   0.064264
   0.078360   0.499298   0.001242   0.018883   0.065797
   0.080246   0.499143   0.001272   0.018887   0.067325
   0.082130   0.498987   0.001301   0.018891   0.068848
   0.084013   0.498832   0.001330   0.018895   0.070365
   0.085894   0.498668   0.001358   0.018900   0.071878
   0.087774   0.498504   0.001387   0.018904   0.073385
   0.089653   0.498335   0.001416   0.018908   0.074888
   0.091531   0.498166   0.001445   0.018913   0.076386
   0.093407   0.497988   0.001473   0.018917   0.077879
   0.095283   0.497810   0.001502   0.018922   0.079366
   0.097157   0.497630   0.001530   0.018926   0.080849
   0.099031   0.497445   0.001559   0.018931   0.082326
   0.100904   0.497258   0.001587   0.018936   0.083799
   0.102775   0.497066   0.001615   0.018940   0.085266
   0.104647   0.496870   0.001643   0.018945   0.086728
   0.106518   0.496674   0.001671   0.018950   0.088185
   0.108388   0.496473   0.001699   0.018955   0.089637
   0.110257   0.496267   0.001727   0.018960   0.091083
   0.112126   0.496062   0.001755   0.018966   0.092525
   0.113995   0.495852   0.001783   0.018971   0.093961
   0.115863   0.495638   0.001810   0.018976   0.095392
   0.117730   0.495419   0.001838   0.018981   0.096818
   0.119598   0.495200   0.001865   0.018987   0.098239
   0.121465   0.494976   0.001893   0.018992   0.099654
   0.123332   0.494752   0.001920   0.018998   0.101065
   0.125199   0.494520   0.001947   0.019003   0.102470
   0.127066   0.494287   0.001974   0.019009   0.103870
   0.128934   0.494054   0.002002   0.019014   0.105265
   0.130801   0.493812   0.002029   0.019020   0.106655
   0.132668   0.493570   0.002056   0.019026   0.108039
   0.134536   0.493324   0.002082   0.019032   0.109418
   0.136404   0.493077   0.002109   0.019037   0.110792
   0.138271   0.492826   0.002136   0.019043   0.112161
   0.140140   0.492571   0.002163   0.019049   0.113524
   0.142009   0.492315   0.002189   0.019055   0.114882
   0.143879   0.492051   0.002216   0.019061   0.116235
   0.145748   0.491790   0.002242   0.019067   0.117583
   0.147620   0.491521   0.002268   0.019073   0.118925
   0.149491   0.491252   0.002295   0.019079   0.120263
   0.151362   0.490978   0.002321   0.019085   0.121595
   0.153235   0.490700   0.002347   0.019092   0.122922
   0.155110   0.490421   0.002373   0.019098   0.124243
   0.156984   0.490138   0.002399   0.019104   0.125560
   0.158860   0.489853   0.002425   0.019110   0.126870
   0.160737   0.489563   0.002450   0.019117   0.128176
   0.162614   0.489271   0.002476   0.019123   0.129477
   0.164493   0.488979   0.002502   0.019129   0.130772
   0.166374   0.488678   0.002527   0.019136   0.132062
   0.168255   0.488377   0.002553   0.019142   0.133347
   0.170137   0.488073   0.002578   0.019149   0.134627
   0.172022   0.487765   0.002603   0.019155   0.135901
   0.173908   0.487455   0.002628   0.019162   0.137170
   0.175795   0.487140   0.002654   0.019168   0.138434
   0.177684   0.486825   0.002679   0.019175   0.139693
   0.179574   0.486506   0.002704   0.019181   0.140946
   0.181466   0.486182   0.002728   0.019188   0.142195
   0.183360   0.485853   0.002753   0.019195   0.143438
   0.185255   0.485524   0.002778   0.019201   0.144676
   0.187153   0.485191   0.002803   0.019208   0.145908
   0.189053   0.484858   0.002827   0.019215   0.147136
   0.190955   0.484518   0.002852   0.019221   0.148358
   0.192858   0.484178   0.002876   0.019228   0.149575
   0.194764   0.483831   0.002900   0.019235   0.150787
   0.196672   0.483484   0.002925   0.019241   0.151994
   0.198583   0.483133   0.002949   0.019248   0.153195
   0.200495   0.482777   0.002973   0.019255   0.154392
   0.202410   0.482421   0.002997   0.019261   0.155584
   0.204327   0.482058   0.003021   0.019268   0.156770
   0.206247   0.481695   0.003044   0.019275   0.157951
   0.208170   0.481326   0.003068   0.019281   0.159127
   0.210096   0.480956   0.003092   0.019288   0.160297
   0.212024   0.480582   0.003115   0.019295   0.161463
   0.213954   0.480208   0.003139   0.019302   0.162623
   0.215888   0.479824   0.003162   0.019308   0.163778
   0.217825   0.479441   0.003186   0.019315   0.164929
   0.219764   0.479058   0.003209   0.019322   0.166073
   0.221707   0.478665   0.003232   0.019328   0.167214
   0.223652   0.478273   0.003255   0.019335   0.168348
   0.225601   0.477876   0.003278   0.019342   0.169478
   0.227554   0.477479   0.003301   0.019348   0.170603
   0.229510   0.477072   0.003324   0.019355   0.171722
   0.231468   0.476666   0.003346   0.019361   0.172837
   0.233431   0.476260   0.003369   0.019368   0.173947
   0.235397   0.475845   0.003392   0.019375   0.175052
   0.237366   0.475429   0.003414   0.019381   0.176151
   0.239340   0.475010   0.003436   0.019388   0.177245
   0.241317   0.474587   0.003459   0.019394   0.178335
   0.243298   0.474161   0.003481   0.019401   0.179419
   0.245283   0.473732   0.003503   0.019407   0.180499
   0.247272   0.473298   0.003525   0.019413   0.181573
   0.249264   0.472865   0.003547   0.019420   0.182642
   0.251262   0.472422   0.003569   0.019426   0.183706
   0.253263   0.471979   0.003590   0.019433   0.184765
   0.255269   0.471534   0.003612   0.019439   0.185819
   0.257279   0.471085   0.003634   0.019445   0.186869
   0.259293   0.470631   0.003655   0.019451   0.187913
   0.261312   0.470172   0.003677   0.019457   0.188952
   0.263335   0.469713   0.003698   0.019464   0.189987
   0.265363   0.469250   0.003719   0.019470   0.191017
   0.267396   0.468782   0.003740   0.019476   0.192041
   0.269433   0.468310   0.003761   0.019482   0.193061
   0.271476   0.467835   0.003782   0.019488   0.194076
   0.273524   0.467361   0.003803   0.019493   0.195085
   0.275577   0.466877   0.003824   0.019499   0.196090
   0.277634   0.466393   0.003844   0.019505   0.197090
   0.279697   0.465905   0.003865   0.019511   0.198086
   0.281765   0.465412   0.003885   0.019516   0.199076
   0.283839   0.464915   0.003906   0.019522   0.200061
   0.285919   0.464417   0.003926   0.019528   0.201041
   0.288004   0.463910   0.003946   0.019533   0.202017
   0.290094   0.463404   0.003966   0.019539   0.202988
   0.292190   0.462893   0.003986   0.019544   0.203954
   0.294293   0.462382   0.004006   0.019549   0.204915
   0.296401   0.461861   0.004026   0.019554   0.205871
   0.298515   0.461341   0.004045   0.019559   0.206822
   0.300635   0.460812   0.004065   0.019565   0.207768
   0.302762   0.460282   0.004084   0.019570   0.208710
   0.304895   0.459748   0.004104   0.019574   0.209647
   0.307034   0.459214   0.004123   0.019579   0.210579
   0.309180   0.458671   0.004142   0.019584   0.211507
   0.311332   0.458126   0.004161   0.019589   0.212429
   0.313491   0.457576   0.004180   0.019593   0.213347
   0.315657   0.457024   0.004199   0.019598   0.214260
   0.317829   0.456467   0.004218   0.019602   0.215169
   0.320010   0.455906   0.004236   0.019606   0.216072
   0.322196   0.455340   0.004255   0.019610   0.216971
   0.324390   0.454771   0.004273   0.019615   0.217865
   0.326592   0.454198   0.004292   0.019618   0.218754
   0.328800   0.453621   0.004310   0.019622   0.219638
   0.331017   0.453039   0.004328   0.019626   0.220518
   0.333241   0.452453   0.004346   0.019630   0.221393
   0.335472   0.451864   0.004364   0.019633   0.222263
   0.337712   0.451269   0.004381   0.019637   0.223128
   0.339959   0.450671   0.004399   0.019640   0.223989
   0.342214   0.450068   0.004417   0.019643   0.224845
   0.344478   0.449461   0.004434   0.019646   0.225697
   0.346750   0.448850   0.004451   0.019649   0.226543
   0.349030   0.448234   0.004469   0.019652   0.227385
   0.351319   0.447615   0.004486   0.019655   0.228222
   0.353617   0.446990   0.004503   0.019657   0.229055
   0.355923   0.446361   0.004519   0.019660   0.229882
   0.358238   0.445728   0.004536   0.019662   0.230706
   0.360563   0.445090   0.004553   0.019664   0.231524
   0.362896   0.444447   0.004569   0.019666   0.232338
   0.365238   0.443801   0.004585   0.019668   0.233147
   0.367590   0.443149   0.004602   0.019669   0.233952
   0.369952   0.442493   0.004618   0.019671   0.234752
   0.372324   0.441832   0.004634   0.019672   0.235547
   0.374705   0.441166   0.004650   0.019673   0.236338
   0.377095   0.440496   0.004665   0.019675   0.237123
   0.379497   0.439821   0.004681   0.019675   0.237905
   0.381908   0.439141   0.004696   0.019676   0.238682
   0.384330   0.438456   0.004712   0.019677   0.239453
   0.386761   0.437766   0.004727   0.019677   0.240221
   0.389204   0.437071   0.004742   0.019677   0.240984
   0.391658   0.436371   0.004757   0.019677   0.241742
   0.394122   0.435667   0.004772   0.019677   0.242495
   0.396598   0.434957   0.004786   0.019676   0.243244
   0.399084   0.434242   0.004801   0.019676   0.243988
   0.401582   0.433522   0.004815   0.019675   0.244727
   0.404092   0.432797   0.004829   0.019674   0.245463
   0.406613   0.432066   0.004843   0.019673   0.246193
   0.409146   0.431331   0.004857   0.019671   0.246919
   0.411691   0.430590   0.004871   0.019670   0.247639
   0.414248   0.429843   0.004885   0.019668   0.248356
   0.416819   0.429092   0.004898   0.019666   0.249068
   0.419401   0.428335   0.004911   0.019663   0.249775
   0.421995   0.427572   0.004925   0.019661   0.250478
   0.424603   0.426804   0.004938   0.019658   0.251176
   0.427224   0.426030   0.004950   0.019655   0.251869
   0.429858   0.425250   0.004963   0.019652   0.252558
   0.432505   0.424465   0.004976   0.019648   0.253242
   0.435167   0.423675   0.004988   0.019644   0.253921
   0.437842   0.422878   0.005000   0.019640   0.254596
   0.440530   0.422076   0.005012   0.019636   0.255266
   0.443233   0.421267   0.005024   0.019631   0.255932
   0.445951   0.420453   0.005036   0.019626   0.256592
   0.448682   0.419633   0.005048   0.019621   0.257248
   0.451429   0.418806   0.005059   0.019616   0.257900
   0.454191   0.417974   0.005070   0.019610   0.258547
   0.456967   0.417136   0.005081   0.019604   0.259189
   0.459759   0.416291   0.005092   0.019598   0.259827
   0.462567   0.415440   0.005103   0.019591   0.260459
   0.465391   0.414582   0.005113   0.019584   0.261088
   0.468230   0.413719   0.005124   0.019577   0.261712
   0.471086   0.412848   0.005134   0.019569   0.262330
   0.473958   0.411972   0.005144   0.019561   0.262945
   0.476847   0.411089   0.005153   0.019553   0.263554
   0.479753   0.410199   0.005163   0.019545   0.264159
   0.482677   0.409302   0.005172   0.019536   0.264759
   0.485617   0.408399   0.005181   0.019526   0.265354
   0.488575   0.407489   0.005190   0.019517   0.265945
   0.491552   0.406572   0.005199   0.019507   0.266531
   0.494547   0.405648   0.005208   0.019496   0.267113
   0.497559   0.404717   0.005216   0.019486   0.267689
   0.500590   0.403779   0.005224   0.019475   0.268261
   0.503640   0.402833   0.005232   0.019463   0.268828
   0.506710   0.401881   0.005240   0.019451   0.269390
   0.509800   0.400921   0.005247   0.019439   0.269948
   0.512910   0.399954   0.005255   0.019426   0.270501
   0.516040   0.398980   0.005262   0.019413   0.271048
   0.519190   0.397997   0.005269   0.019399   0.271591
   0.522360   0.397008   0.005275   0.019385   0.272130
   0.525555   0.396010   0.005282   0.019371   0.272663
   0.528765   0.395005   0.005288   0.019356   0.273191
   0.532000   0.393992   0.005294   0.019340   0.273716
   0.535255   0.392971   0.005299   0.019325   0.274234
   0.538535   0.391943   0.005305   0.019308   0.274749
   0.541840   0.390906   0.005310   0.019291   0.275258
   0.545160   0.389861   0.005315   0.019274   0.275762
   0.548510   0.388807   0.005320   0.019256   0.276262
   0.551880   0.387746   0.005324   0.019238   0.276756
   0.555275   0.386675   0.005328   0.019219   0.277246
   0.558695   0.385597   0.005332   0.019200   0.277731
   0.562140   0.384510   0.005336   0.019180   0.278210
   0.565610   0.383414   0.005339   0.019160   0.278685
   0.569105   0.382309   0.005343   0.019139   0.279155
   0.572630   0.381196   0.005345   0.019117   0.279619
   0.576175   0.380073   0.005348   0.019095   0.280079