# Ima C. Effdeer
# Colorful Fluid Dynamics, Inc.
# i.c.e@cfdtillithurts.com,  (911) 911-9111
# Provided unstructured 2D grid number 3, 116110 nodes, 345880 faces, and 232218 cells
# 512 time steps per cycle
# Code: FUN9D: upwind-biased, finite-difference, unstructured, RANS
# globally 2nd order in space, 2nd order in time
# Explicit Algebraic Stress turb model in k-omega form
# other info 
variables="x/c","y/c","u/Uinf","v/Uinf","uu/Uinf^2","vv/Uinf^2","uv/Uinf^2"
zone t="x/c=0.65"
 -2.14000  0.00000  0.00000  0.00000  0.00000  0.00000  0.00000
  ...etc
 -2.14000  0.80000  0.10000  0.02340  0.10230 -0.00340 -0.01012
zone t="x/c=0.66"
  0.00000  0.00000  0.00000  0.00000  0.00000  0.00000  0.00000
  ...etc
  0.00000  0.80000  0.10000  0.02340  0.10230 -0.00340 -0.01012
zone t="x/c=0.67"
  0.20000  0.01000  0.00000  0.00000  0.00000  0.00000  0.00000
  ...etc
  0.20000  0.80000  0.10000  0.02340  0.10230 -0.00340 -0.01012
zone t="x/c=0.68"
  0.40000  0.01000  0.00000  0.00000  0.00000  0.00000  0.00000
  ...etc
  0.40000  0.80000  0.10000  0.02340  0.10230 -0.00340 -0.01012
zone t="x/c=0.8"
  0.80000  0.01000  0.00000  0.00000  0.00000  0.00000  0.00000
  ...etc
  0.80000  0.80000  0.10000  0.02340  0.10230 -0.00340 -0.01012
zone t="x/c=0.9"
  0.90000  0.01000  0.00000  0.00000  0.00000  0.00000  0.00000
  ...etc
  0.90000  0.80000  0.10000  0.02340  0.10230 -0.00340 -0.01012
zone t="x/c=1.0"
  1.00000  0.00000  0.00000  0.00000  0.00000  0.00000  0.00000
  ...etc
  1.00000  0.80000  0.10000  0.02340  0.10230 -0.00340 -0.01012
zone t="x/c=1.1"
  1.10000  0.00000  0.00000  0.00000  0.00000  0.00000  0.00000
  ...etc
  1.10000  0.80000  0.10000  0.02340  0.10230 -0.00340 -0.01012
zone t="x/c=1.2"
  1.20000  0.00000  0.00000  0.00000  0.00000  0.00000  0.00000
  ...etc
  1.20000  0.80000  0.10000  0.02340  0.10230 -0.00340 -0.01012
zone t="slot exit, (x/c,y/c)=(0.65416,0.11501) to (0.65848,0.11358)"
  0.65416  0.11501  0.00000  0.00000  0.00000  0.00000  0.00000
  ...etc
  0.65848  0.11358  0.00000  0.00000  0.00000  0.00000  0.00000
