variables="x","skinfr","5percenterror"
#Flat plate theory Cf as a fn of x, specifically for Re_L=5 million (L=2) case
#The theories are from White "Viscous Fluid Flow" McGraw Hill, New York, 1974 (Cf as fn of Re_x)
zone, t="theory 1, White 6-112a"
        0.200000E-02        0.938257E-02        0.469128E-03
        0.400000E-02        0.816800E-02        0.408400E-03
        0.600000E-02        0.753178E-02        0.376589E-03
        0.800000E-02        0.711066E-02        0.355533E-03
        0.100000E-01        0.680029E-02        0.340015E-03
        0.120000E-01        0.655679E-02        0.327840E-03
        0.140000E-01        0.635773E-02        0.317887E-03
        0.160000E-01        0.619019E-02        0.309509E-03
        0.180000E-01        0.604607E-02        0.302304E-03
        0.200000E-01        0.592000E-02        0.296000E-03
        0.220000E-01        0.580822E-02        0.290411E-03
        0.240000E-01        0.570802E-02        0.285401E-03
        0.260000E-01        0.561737E-02        0.280869E-03
        0.280000E-01        0.553473E-02        0.276736E-03
        0.300000E-01        0.545888E-02        0.272944E-03
        0.320000E-01        0.538887E-02        0.269444E-03
        0.340000E-01        0.532392E-02        0.266196E-03
        0.360000E-01        0.526341E-02        0.263171E-03
        0.380000E-01        0.520680E-02        0.260340E-03
        0.400000E-01        0.515366E-02        0.257683E-03
        0.420000E-01        0.510361E-02        0.255181E-03
        0.440000E-01        0.505635E-02        0.252818E-03
        0.460000E-01        0.501160E-02        0.250580E-03
        0.480000E-01        0.496912E-02        0.248456E-03
        0.500000E-01        0.492871E-02        0.246436E-03
        0.520000E-01        0.489020E-02        0.244510E-03
        0.540000E-01        0.485343E-02        0.242672E-03
        0.560000E-01        0.481826E-02        0.240913E-03
        0.580000E-01        0.478456E-02        0.239228E-03
        0.600000E-01        0.475223E-02        0.237612E-03
        0.620000E-01        0.472117E-02        0.236058E-03
        0.640000E-01        0.469128E-02        0.234564E-03
        0.660000E-01        0.466250E-02        0.233125E-03
        0.680000E-01        0.463475E-02        0.231737E-03
        0.700000E-01        0.460795E-02        0.230398E-03
        0.720000E-01        0.458206E-02        0.229103E-03
        0.740000E-01        0.455702E-02        0.227851E-03
        0.760000E-01        0.453278E-02        0.226639E-03
        0.780000E-01        0.450930E-02        0.225465E-03
        0.800000E-01        0.448652E-02        0.224326E-03
        0.820000E-01        0.446442E-02        0.223221E-03
        0.840000E-01        0.444295E-02        0.222148E-03
        0.860000E-01        0.442209E-02        0.221105E-03
        0.880000E-01        0.440181E-02        0.220090E-03
        0.900000E-01        0.438207E-02        0.219103E-03
        0.920000E-01        0.436285E-02        0.218142E-03
        0.940000E-01        0.434412E-02        0.217206E-03
        0.960000E-01        0.432587E-02        0.216293E-03
        0.980000E-01        0.430807E-02        0.215403E-03
        0.100000E+00        0.429070E-02        0.214535E-03
        0.102000E+00        0.427374E-02        0.213687E-03
        0.104000E+00        0.425717E-02        0.212859E-03
        0.106000E+00        0.424098E-02        0.212049E-03
        0.108000E+00        0.422516E-02        0.211258E-03
        0.110000E+00        0.420968E-02        0.210484E-03
        0.112000E+00        0.419454E-02        0.209727E-03
        0.114000E+00        0.417972E-02        0.208986E-03
        0.116000E+00        0.416520E-02        0.208260E-03
        0.118000E+00        0.415099E-02        0.207549E-03
        0.120000E+00        0.413706E-02        0.206853E-03
        0.122000E+00        0.412340E-02        0.206170E-03
        0.124000E+00        0.411001E-02        0.205501E-03
        0.126000E+00        0.409688E-02        0.204844E-03
        0.128000E+00        0.408400E-02        0.204200E-03
        0.130000E+00        0.407136E-02        0.203568E-03
        0.132000E+00        0.405894E-02        0.202947E-03
        0.134000E+00        0.404675E-02        0.202338E-03
        0.136000E+00        0.403478E-02        0.201739E-03
        0.138000E+00        0.402302E-02        0.201151E-03
        0.140000E+00        0.401146E-02        0.200573E-03
        0.142000E+00        0.400009E-02        0.200005E-03
        0.144000E+00        0.398892E-02        0.199446E-03
        0.146000E+00        0.397793E-02        0.198896E-03
        0.148000E+00        0.396712E-02        0.198356E-03
        0.150000E+00        0.395648E-02        0.197824E-03
        0.152000E+00        0.394602E-02        0.197301E-03
        0.154000E+00        0.393571E-02        0.196786E-03
        0.156000E+00        0.392557E-02        0.196279E-03
        0.158000E+00        0.391558E-02        0.195779E-03
        0.160000E+00        0.390574E-02        0.195287E-03
        0.162000E+00        0.389605E-02        0.194803E-03
        0.164000E+00        0.388650E-02        0.194325E-03
        0.166000E+00        0.387709E-02        0.193855E-03
        0.168000E+00        0.386782E-02        0.193391E-03
        0.170000E+00        0.385867E-02        0.192934E-03
        0.172000E+00        0.384966E-02        0.192483E-03
        0.174000E+00        0.384077E-02        0.192038E-03
        0.176000E+00        0.383200E-02        0.191600E-03
        0.178000E+00        0.382335E-02        0.191167E-03
        0.180000E+00        0.381481E-02        0.190741E-03
        0.182000E+00        0.380639E-02        0.190320E-03
        0.184000E+00        0.379808E-02        0.189904E-03
        0.186000E+00        0.378988E-02        0.189494E-03
        0.188000E+00        0.378178E-02        0.189089E-03
        0.190000E+00        0.377378E-02        0.188689E-03
        0.192000E+00        0.376589E-02        0.188294E-03
        0.194000E+00        0.375809E-02        0.187905E-03
        0.196000E+00        0.375039E-02        0.187520E-03
        0.198000E+00        0.374278E-02        0.187139E-03
        0.200000E+00        0.373527E-02        0.186763E-03
        0.202000E+00        0.372784E-02        0.186392E-03
        0.204000E+00        0.372050E-02        0.186025E-03
        0.206000E+00        0.371325E-02        0.185663E-03
        0.208000E+00        0.370608E-02        0.185304E-03
        0.210000E+00        0.369900E-02        0.184950E-03
        0.212000E+00        0.369199E-02        0.184600E-03
        0.214000E+00        0.368506E-02        0.184253E-03
        0.216000E+00        0.367821E-02        0.183911E-03
        0.218000E+00        0.367144E-02        0.183572E-03
        0.220000E+00        0.366474E-02        0.183237E-03
        0.222000E+00        0.365811E-02        0.182906E-03
        0.224000E+00        0.365156E-02        0.182578E-03
        0.226000E+00        0.364507E-02        0.182254E-03
        0.228000E+00        0.363865E-02        0.181933E-03
        0.230000E+00        0.363230E-02        0.181615E-03
        0.232000E+00        0.362602E-02        0.181301E-03
        0.234000E+00        0.361980E-02        0.180990E-03
        0.236000E+00        0.361364E-02        0.180682E-03
        0.238000E+00        0.360755E-02        0.180377E-03
        0.240000E+00        0.360152E-02        0.180076E-03
        0.242000E+00        0.359554E-02        0.179777E-03
        0.244000E+00        0.358963E-02        0.179482E-03
        0.246000E+00        0.358377E-02        0.179189E-03
        0.248000E+00        0.357798E-02        0.178899E-03
        0.250000E+00        0.357223E-02        0.178612E-03
        0.252000E+00        0.356654E-02        0.178327E-03
        0.254000E+00        0.356091E-02        0.178045E-03
        0.256000E+00        0.355533E-02        0.177766E-03
        0.258000E+00        0.354980E-02        0.177490E-03
        0.260000E+00        0.354432E-02        0.177216E-03
        0.262000E+00        0.353889E-02        0.176945E-03
        0.264000E+00        0.353351E-02        0.176676E-03
        0.266000E+00        0.352819E-02        0.176409E-03
        0.268000E+00        0.352290E-02        0.176145E-03
        0.270000E+00        0.351767E-02        0.175883E-03
        0.272000E+00        0.351248E-02        0.175624E-03
        0.274000E+00        0.350734E-02        0.175367E-03
        0.276000E+00        0.350224E-02        0.175112E-03
        0.278000E+00        0.349719E-02        0.174859E-03
        0.280000E+00        0.349218E-02        0.174609E-03
        0.282000E+00        0.348721E-02        0.174360E-03
        0.284000E+00        0.348228E-02        0.174114E-03
        0.286000E+00        0.347740E-02        0.173870E-03
        0.288000E+00        0.347256E-02        0.173628E-03
        0.290000E+00        0.346775E-02        0.173388E-03
        0.292000E+00        0.346299E-02        0.173149E-03
        0.294000E+00        0.345826E-02        0.172913E-03
        0.296000E+00        0.345358E-02        0.172679E-03
        0.298000E+00        0.344893E-02        0.172447E-03
        0.300000E+00        0.344432E-02        0.172216E-03
        0.302000E+00        0.343975E-02        0.171987E-03
        0.304000E+00        0.343521E-02        0.171760E-03
        0.306000E+00        0.343071E-02        0.171535E-03
        0.308000E+00        0.342624E-02        0.171312E-03
        0.310000E+00        0.342181E-02        0.171090E-03
        0.312000E+00        0.341741E-02        0.170870E-03
        0.314000E+00        0.341304E-02        0.170652E-03
        0.316000E+00        0.340871E-02        0.170436E-03
        0.318000E+00        0.340441E-02        0.170221E-03
        0.320000E+00        0.340015E-02        0.170007E-03
        0.322000E+00        0.339591E-02        0.169796E-03
        0.324000E+00        0.339171E-02        0.169585E-03
        0.326000E+00        0.338754E-02        0.169377E-03
        0.328000E+00        0.338340E-02        0.169170E-03
        0.330000E+00        0.337929E-02        0.168964E-03
        0.332000E+00        0.337520E-02        0.168760E-03
        0.334000E+00        0.337115E-02        0.168558E-03
        0.336000E+00        0.336713E-02        0.168356E-03
        0.338000E+00        0.336314E-02        0.168157E-03
        0.340000E+00        0.335917E-02        0.167958E-03
        0.342000E+00        0.335523E-02        0.167762E-03
        0.344000E+00        0.335132E-02        0.167566E-03
        0.346000E+00        0.334744E-02        0.167372E-03
        0.348000E+00        0.334358E-02        0.167179E-03
        0.350000E+00        0.333975E-02        0.166988E-03
        0.352000E+00        0.333595E-02        0.166797E-03
        0.354000E+00        0.333217E-02        0.166608E-03
        0.356000E+00        0.332842E-02        0.166421E-03
        0.358000E+00        0.332469E-02        0.166234E-03
        0.360000E+00        0.332099E-02        0.166049E-03
        0.362000E+00        0.331731E-02        0.165865E-03
        0.364000E+00        0.331366E-02        0.165683E-03
        0.366000E+00        0.331003E-02        0.165501E-03
        0.368000E+00        0.330642E-02        0.165321E-03
        0.370000E+00        0.330284E-02        0.165142E-03
        0.372000E+00        0.329928E-02        0.164964E-03
        0.374000E+00        0.329574E-02        0.164787E-03
        0.376000E+00        0.329223E-02        0.164611E-03
        0.378000E+00        0.328874E-02        0.164437E-03
        0.380000E+00        0.328527E-02        0.164263E-03
        0.382000E+00        0.328182E-02        0.164091E-03
        0.384000E+00        0.327840E-02        0.163920E-03
        0.386000E+00        0.327499E-02        0.163750E-03
        0.388000E+00        0.327161E-02        0.163580E-03
        0.390000E+00        0.326825E-02        0.163412E-03
        0.392000E+00        0.326490E-02        0.163245E-03
        0.394000E+00        0.326158E-02        0.163079E-03
        0.396000E+00        0.325828E-02        0.162914E-03
        0.398000E+00        0.325500E-02        0.162750E-03
        0.400000E+00        0.325174E-02        0.162587E-03
        0.402000E+00        0.324850E-02        0.162425E-03
        0.404000E+00        0.324527E-02        0.162264E-03
        0.406000E+00        0.324207E-02        0.162104E-03
        0.408000E+00        0.323889E-02        0.161944E-03
        0.410000E+00        0.323572E-02        0.161786E-03
        0.412000E+00        0.323257E-02        0.161629E-03
        0.414000E+00        0.322944E-02        0.161472E-03
        0.416000E+00        0.322633E-02        0.161317E-03
        0.418000E+00        0.322324E-02        0.161162E-03
        0.420000E+00        0.322016E-02        0.161008E-03
        0.422000E+00        0.321710E-02        0.160855E-03
        0.424000E+00        0.321406E-02        0.160703E-03
        0.426000E+00        0.321104E-02        0.160552E-03
        0.428000E+00        0.320803E-02        0.160402E-03
        0.430000E+00        0.320504E-02        0.160252E-03
        0.432000E+00        0.320207E-02        0.160104E-03
        0.434000E+00        0.319911E-02        0.159956E-03
        0.436000E+00        0.319617E-02        0.159809E-03
        0.438000E+00        0.319325E-02        0.159662E-03
        0.440000E+00        0.319034E-02        0.159517E-03
        0.442000E+00        0.318745E-02        0.159372E-03
        0.444000E+00        0.318457E-02        0.159229E-03
        0.446000E+00        0.318171E-02        0.159086E-03
        0.448000E+00        0.317887E-02        0.158943E-03
        0.450000E+00        0.317603E-02        0.158802E-03
        0.452000E+00        0.317322E-02        0.158661E-03
        0.454000E+00        0.317042E-02        0.158521E-03
        0.456000E+00        0.316763E-02        0.158382E-03
        0.458000E+00        0.316486E-02        0.158243E-03
        0.460000E+00        0.316210E-02        0.158105E-03
        0.462000E+00        0.315936E-02        0.157968E-03
        0.464000E+00        0.315663E-02        0.157832E-03
        0.466000E+00        0.315392E-02        0.157696E-03
        0.468000E+00        0.315122E-02        0.157561E-03
        0.470000E+00        0.314853E-02        0.157427E-03
        0.472000E+00        0.314586E-02        0.157293E-03
        0.474000E+00        0.314320E-02        0.157160E-03
        0.476000E+00        0.314055E-02        0.157028E-03
        0.478000E+00        0.313792E-02        0.156896E-03
        0.480000E+00        0.313530E-02        0.156765E-03
        0.482000E+00        0.313270E-02        0.156635E-03
        0.484000E+00        0.313010E-02        0.156505E-03
        0.486000E+00        0.312752E-02        0.156376E-03
        0.488000E+00        0.312495E-02        0.156248E-03
        0.490000E+00        0.312240E-02        0.156120E-03
        0.492000E+00        0.311986E-02        0.155993E-03
        0.494000E+00        0.311733E-02        0.155866E-03
        0.496000E+00        0.311481E-02        0.155740E-03
        0.498000E+00        0.311230E-02        0.155615E-03
        0.500000E+00        0.310981E-02        0.155490E-03
        0.502000E+00        0.310733E-02        0.155366E-03
        0.504000E+00        0.310486E-02        0.155243E-03
        0.506000E+00        0.310240E-02        0.155120E-03
        0.508000E+00        0.309995E-02        0.154998E-03
        0.510000E+00        0.309752E-02        0.154876E-03
        0.512000E+00        0.309509E-02        0.154755E-03
        0.514000E+00        0.309268E-02        0.154634E-03
        0.516000E+00        0.309028E-02        0.154514E-03
        0.518000E+00        0.308789E-02        0.154394E-03
        0.520000E+00        0.308551E-02        0.154276E-03
        0.522000E+00        0.308314E-02        0.154157E-03
        0.524000E+00        0.308079E-02        0.154039E-03
        0.526000E+00        0.307844E-02        0.153922E-03
        0.528000E+00        0.307610E-02        0.153805E-03
        0.530000E+00        0.307378E-02        0.153689E-03
        0.532000E+00        0.307146E-02        0.153573E-03
        0.534000E+00        0.306916E-02        0.153458E-03
        0.536000E+00        0.306687E-02        0.153343E-03
        0.538000E+00        0.306458E-02        0.153229E-03
        0.540000E+00        0.306231E-02        0.153115E-03
        0.542000E+00        0.306005E-02        0.153002E-03
        0.544000E+00        0.305779E-02        0.152890E-03
        0.546000E+00        0.305555E-02        0.152777E-03
        0.548000E+00        0.305331E-02        0.152666E-03
        0.550000E+00        0.305109E-02        0.152555E-03
        0.552000E+00        0.304888E-02        0.152444E-03
        0.554000E+00        0.304667E-02        0.152334E-03
        0.556000E+00        0.304448E-02        0.152224E-03
        0.558000E+00        0.304229E-02        0.152115E-03
        0.560000E+00        0.304012E-02        0.152006E-03
        0.562000E+00        0.303795E-02        0.151897E-03
        0.564000E+00        0.303579E-02        0.151790E-03
        0.566000E+00        0.303364E-02        0.151682E-03
        0.568000E+00        0.303150E-02        0.151575E-03
        0.570000E+00        0.302937E-02        0.151469E-03
        0.572000E+00        0.302725E-02        0.151363E-03
        0.574000E+00        0.302514E-02        0.151257E-03
        0.576000E+00        0.302304E-02        0.151152E-03
        0.578000E+00        0.302094E-02        0.151047E-03
        0.580000E+00        0.301885E-02        0.150943E-03
        0.582000E+00        0.301678E-02        0.150839E-03
        0.584000E+00        0.301471E-02        0.150735E-03
        0.586000E+00        0.301265E-02        0.150632E-03
        0.588000E+00        0.301059E-02        0.150530E-03
        0.590000E+00        0.300855E-02        0.150428E-03
        0.592000E+00        0.300651E-02        0.150326E-03
        0.594000E+00        0.300449E-02        0.150224E-03
        0.596000E+00        0.300247E-02        0.150123E-03
        0.598000E+00        0.300046E-02        0.150023E-03
        0.600000E+00        0.299845E-02        0.149923E-03
        0.602000E+00        0.299646E-02        0.149823E-03
        0.604000E+00        0.299447E-02        0.149724E-03
        0.606000E+00        0.299249E-02        0.149625E-03
        0.608000E+00        0.299052E-02        0.149526E-03
        0.610000E+00        0.298856E-02        0.149428E-03
        0.612000E+00        0.298660E-02        0.149330E-03
        0.614000E+00        0.298465E-02        0.149233E-03
        0.616000E+00        0.298271E-02        0.149136E-03
        0.618000E+00        0.298078E-02        0.149039E-03
        0.620000E+00        0.297886E-02        0.148943E-03
        0.622000E+00        0.297694E-02        0.148847E-03
        0.624000E+00        0.297503E-02        0.148751E-03
        0.626000E+00        0.297312E-02        0.148656E-03
        0.628000E+00        0.297123E-02        0.148561E-03
        0.630000E+00        0.296934E-02        0.148467E-03
        0.632000E+00        0.296746E-02        0.148373E-03
        0.634000E+00        0.296558E-02        0.148279E-03
        0.636000E+00        0.296371E-02        0.148186E-03
        0.638000E+00        0.296185E-02        0.148093E-03
        0.640000E+00        0.296000E-02        0.148000E-03
        0.642000E+00        0.295815E-02        0.147908E-03
        0.644000E+00        0.295631E-02        0.147816E-03
        0.646000E+00        0.295448E-02        0.147724E-03
        0.648000E+00        0.295265E-02        0.147633E-03
        0.650000E+00        0.295084E-02        0.147542E-03
        0.652000E+00        0.294902E-02        0.147451E-03
        0.654000E+00        0.294722E-02        0.147361E-03
        0.656000E+00        0.294542E-02        0.147271E-03
        0.658000E+00        0.294363E-02        0.147181E-03
        0.660000E+00        0.294184E-02        0.147092E-03
        0.662000E+00        0.294006E-02        0.147003E-03
        0.664000E+00        0.293829E-02        0.146914E-03
        0.666000E+00        0.293652E-02        0.146826E-03
        0.668000E+00        0.293476E-02        0.146738E-03
        0.670000E+00        0.293300E-02        0.146650E-03
        0.672000E+00        0.293126E-02        0.146563E-03
        0.674000E+00        0.292952E-02        0.146476E-03
        0.676000E+00        0.292778E-02        0.146389E-03
        0.678000E+00        0.292605E-02        0.146303E-03
        0.680000E+00        0.292433E-02        0.146216E-03
        0.682000E+00        0.292261E-02        0.146130E-03
        0.684000E+00        0.292090E-02        0.146045E-03
        0.686000E+00        0.291919E-02        0.145960E-03
        0.688000E+00        0.291749E-02        0.145875E-03
        0.690000E+00        0.291580E-02        0.145790E-03
        0.692000E+00        0.291411E-02        0.145706E-03
        0.694000E+00        0.291243E-02        0.145622E-03
        0.696000E+00        0.291076E-02        0.145538E-03
        0.698000E+00        0.290909E-02        0.145454E-03
        0.700000E+00        0.290742E-02        0.145371E-03
        0.702000E+00        0.290576E-02        0.145288E-03
        0.704000E+00        0.290411E-02        0.145206E-03
        0.706000E+00        0.290246E-02        0.145123E-03
        0.708000E+00        0.290082E-02        0.145041E-03
        0.710000E+00        0.289919E-02        0.144959E-03
        0.712000E+00        0.289756E-02        0.144878E-03
        0.714000E+00        0.289593E-02        0.144797E-03
        0.716000E+00        0.289431E-02        0.144716E-03
        0.718000E+00        0.289270E-02        0.144635E-03
        0.720000E+00        0.289109E-02        0.144554E-03
        0.722000E+00        0.288948E-02        0.144474E-03
        0.724000E+00        0.288789E-02        0.144394E-03
        0.726000E+00        0.288629E-02        0.144315E-03
        0.728000E+00        0.288471E-02        0.144235E-03
        0.730000E+00        0.288312E-02        0.144156E-03
        0.732000E+00        0.288155E-02        0.144077E-03
        0.734000E+00        0.287997E-02        0.143999E-03
        0.736000E+00        0.287841E-02        0.143920E-03
        0.738000E+00        0.287684E-02        0.143842E-03
        0.740000E+00        0.287529E-02        0.143764E-03
        0.742000E+00        0.287374E-02        0.143687E-03
        0.744000E+00        0.287219E-02        0.143609E-03
        0.746000E+00        0.287065E-02        0.143532E-03
        0.748000E+00        0.286911E-02        0.143456E-03
        0.750000E+00        0.286758E-02        0.143379E-03
        0.752000E+00        0.286605E-02        0.143303E-03
        0.754000E+00        0.286453E-02        0.143227E-03
        0.756000E+00        0.286301E-02        0.143151E-03
        0.758000E+00        0.286150E-02        0.143075E-03
        0.760000E+00        0.285999E-02        0.143000E-03
        0.762000E+00        0.285849E-02        0.142925E-03
        0.764000E+00        0.285699E-02        0.142850E-03
        0.766000E+00        0.285550E-02        0.142775E-03
        0.768000E+00        0.285401E-02        0.142700E-03
        0.770000E+00        0.285253E-02        0.142626E-03
        0.772000E+00        0.285105E-02        0.142552E-03
        0.774000E+00        0.284957E-02        0.142479E-03
        0.776000E+00        0.284810E-02        0.142405E-03
        0.778000E+00        0.284664E-02        0.142332E-03
        0.780000E+00        0.284517E-02        0.142259E-03
        0.782000E+00        0.284372E-02        0.142186E-03
        0.784000E+00        0.284226E-02        0.142113E-03
        0.786000E+00        0.284082E-02        0.142041E-03
        0.788000E+00        0.283937E-02        0.141969E-03
        0.790000E+00        0.283793E-02        0.141897E-03
        0.792000E+00        0.283650E-02        0.141825E-03
        0.794000E+00        0.283507E-02        0.141753E-03
        0.796000E+00        0.283364E-02        0.141682E-03
        0.798000E+00        0.283222E-02        0.141611E-03
        0.800000E+00        0.283080E-02        0.141540E-03
        0.802000E+00        0.282939E-02        0.141470E-03
        0.804000E+00        0.282798E-02        0.141399E-03
        0.806000E+00        0.282658E-02        0.141329E-03
        0.808000E+00        0.282518E-02        0.141259E-03
        0.810000E+00        0.282378E-02        0.141189E-03
        0.812000E+00        0.282239E-02        0.141119E-03
        0.814000E+00        0.282100E-02        0.141050E-03
        0.816000E+00        0.281961E-02        0.140981E-03
        0.818000E+00        0.281823E-02        0.140912E-03
        0.820000E+00        0.281686E-02        0.140843E-03
        0.822000E+00        0.281549E-02        0.140774E-03
        0.824000E+00        0.281412E-02        0.140706E-03
        0.826000E+00        0.281275E-02        0.140638E-03
        0.828000E+00        0.281139E-02        0.140570E-03
        0.830000E+00        0.281004E-02        0.140502E-03
        0.832000E+00        0.280869E-02        0.140434E-03
        0.834000E+00        0.280734E-02        0.140367E-03
        0.836000E+00        0.280599E-02        0.140300E-03
        0.838000E+00        0.280465E-02        0.140233E-03
        0.840000E+00        0.280331E-02        0.140166E-03
        0.842000E+00        0.280198E-02        0.140099E-03
        0.844000E+00        0.280065E-02        0.140033E-03
        0.846000E+00        0.279933E-02        0.139966E-03
        0.848000E+00        0.279801E-02        0.139900E-03
        0.850000E+00        0.279669E-02        0.139834E-03
        0.852000E+00        0.279537E-02        0.139769E-03
        0.854000E+00        0.279406E-02        0.139703E-03
        0.856000E+00        0.279276E-02        0.139638E-03
        0.858000E+00        0.279145E-02        0.139573E-03
        0.860000E+00        0.279015E-02        0.139508E-03
        0.862000E+00        0.278886E-02        0.139443E-03
        0.864000E+00        0.278756E-02        0.139378E-03
        0.866000E+00        0.278628E-02        0.139314E-03
        0.868000E+00        0.278499E-02        0.139250E-03
        0.870000E+00        0.278371E-02        0.139185E-03
        0.872000E+00        0.278243E-02        0.139122E-03
        0.874000E+00        0.278116E-02        0.139058E-03
        0.876000E+00        0.277989E-02        0.138994E-03
        0.878000E+00        0.277862E-02        0.138931E-03
        0.880000E+00        0.277735E-02        0.138868E-03
        0.882000E+00        0.277609E-02        0.138805E-03
        0.884000E+00        0.277484E-02        0.138742E-03
        0.886000E+00        0.277358E-02        0.138679E-03
        0.888000E+00        0.277233E-02        0.138617E-03
        0.890000E+00        0.277108E-02        0.138554E-03
        0.892000E+00        0.276984E-02        0.138492E-03
        0.894000E+00        0.276860E-02        0.138430E-03
        0.896000E+00        0.276736E-02        0.138368E-03
        0.898000E+00        0.276613E-02        0.138306E-03
        0.900000E+00        0.276490E-02        0.138245E-03
        0.902000E+00        0.276367E-02        0.138184E-03
        0.904000E+00        0.276245E-02        0.138122E-03
        0.906000E+00        0.276123E-02        0.138061E-03
        0.908000E+00        0.276001E-02        0.138000E-03
        0.910000E+00        0.275879E-02        0.137940E-03
        0.912000E+00        0.275758E-02        0.137879E-03
        0.914000E+00        0.275638E-02        0.137819E-03
        0.916000E+00        0.275517E-02        0.137759E-03
        0.918000E+00        0.275397E-02        0.137698E-03
        0.920000E+00        0.275277E-02        0.137639E-03
        0.922000E+00        0.275158E-02        0.137579E-03
        0.924000E+00        0.275038E-02        0.137519E-03
        0.926000E+00        0.274919E-02        0.137460E-03
        0.928000E+00        0.274801E-02        0.137400E-03
        0.930000E+00        0.274683E-02        0.137341E-03
        0.932000E+00        0.274565E-02        0.137282E-03
        0.934000E+00        0.274447E-02        0.137223E-03
        0.936000E+00        0.274330E-02        0.137165E-03
        0.938000E+00        0.274212E-02        0.137106E-03
        0.940000E+00        0.274096E-02        0.137048E-03
        0.942000E+00        0.273979E-02        0.136990E-03
        0.944000E+00        0.273863E-02        0.136931E-03
        0.946000E+00        0.273747E-02        0.136874E-03
        0.948000E+00        0.273631E-02        0.136816E-03
        0.950000E+00        0.273516E-02        0.136758E-03
        0.952000E+00        0.273401E-02        0.136701E-03
        0.954000E+00        0.273286E-02        0.136643E-03
        0.956000E+00        0.273172E-02        0.136586E-03
        0.958000E+00        0.273058E-02        0.136529E-03
        0.960000E+00        0.272944E-02        0.136472E-03
        0.962000E+00        0.272830E-02        0.136415E-03
        0.964000E+00        0.272717E-02        0.136359E-03
        0.966000E+00        0.272604E-02        0.136302E-03
        0.968000E+00        0.272491E-02        0.136246E-03
        0.970000E+00        0.272379E-02        0.136189E-03
        0.972000E+00        0.272267E-02        0.136133E-03
        0.974000E+00        0.272155E-02        0.136077E-03