# Convergence of Cf at x=0.970084071 with grid size, incompressible codes using SST/SST-V model
variables="N","h^2=1/N","h=sqrt(1/N)","C_f,x=0.97"
zone, t="FUN3D incompressible SST/SST-V"
208896.  4.78707e-6  2.18794e-3  2.717360621E-03
 52224.  1.91483e-5  4.37588e-3  2.709812019E-03
 13056.  7.65931e-5  8.75175e-3  2.691188129E-03
  3264.  3.06373e-4  1.75035e-2  2.653050236E-03
   816.  1.22549e-3  3.50070e-2  2.579304855E-03
zone t="SC/Tetra incompressible SST/SST-V"
208896.  4.78707e-6  2.18794e-3  2.7211939E-03
 52224.  1.91483e-5  4.37588e-3  2.7173136E-03
 13056.  7.65931e-5  8.75175e-3  2.7014893E-03
  3264.  3.06373e-4  1.75035e-2  2.6766260E-03
   816.  1.22549e-3  3.50070e-2  2.6469855E-03
zone t="GHOST incompressible SST/SST-V"
208896.  4.78707e-6  2.18794e-3  2.7108542E-03
 52224.  1.91483e-5  4.37588e-3  2.7001589E-03
 13056.  7.65931e-5  8.75175e-3  2.6757238E-03
  3264.  3.06373e-4  1.75035e-2  2.6187797E-03
   816.  1.22549e-3  3.50070e-2  2.5038836E-03
