#Flat plate skin friction results using CFL3D on 545x385, postprocessed
# (Results here given to greater accuracy than convergence tolerance)
VARIABLES = "cf","retheta"
ZONE T="EASMko2003-S"
 1.191174705E-02 4.027923584E+01
 1.506350469E-02 6.113516617E+01
 6.171532907E-03 7.545152283E+01
 5.670777988E-03 8.953336334E+01
 5.730034318E-03 1.045233688E+02
 5.895869341E-03 1.200602875E+02
 6.013715640E-03 1.356894684E+02
 6.048159674E-03 1.512512360E+02
 6.020850968E-03 1.667032166E+02
 5.961203482E-03 1.820350800E+02
 5.888838321E-03 1.972347565E+02
 5.813298747E-03 2.122931213E+02
 5.739057902E-03 2.272146606E+02
 5.668009631E-03 2.419963684E+02
 5.600987002E-03 2.566479492E+02
 5.538058467E-03 2.711689148E+02
 5.478954408E-03 2.855707397E+02
 5.423335824E-03 2.998578186E+02
 5.370888859E-03 3.140357056E+02
 5.321325734E-03 3.281123352E+02
 5.274402443E-03 3.420946960E+02
 5.229895003E-03 3.559875488E+02
 5.187605042E-03 3.697950439E+02
 5.147352815E-03 3.835236206E+02
 5.108967423E-03 3.971811523E+02
 5.072304979E-03 4.107696533E+02
 5.037225783E-03 4.242922974E+02
 5.003615282E-03 4.377547302E+02
 4.971366376E-03 4.511584778E+02
 4.940377548E-03 4.645092773E+02
 4.910565913E-03 4.778113403E+02
 4.881847184E-03 4.910657654E+02
 4.854154773E-03 5.042734375E+02
 4.827419762E-03 5.174373169E+02
 4.801581148E-03 5.305610962E+02
 4.776587244E-03 5.436535645E+02
 4.752388224E-03 5.567078857E+02
 4.728936590E-03 5.697252808E+02
 4.706191365E-03 5.827129517E+02
 4.684112966E-03 5.956770630E+02
 4.662664142E-03 6.086063232E+02
 4.641814157E-03 6.215124512E+02
 4.621529952E-03 6.343972168E+02
 4.601785913E-03 6.472542114E+02
 4.582552705E-03 6.600954590E+02
 4.563807044E-03 6.729141235E+02
 4.545525648E-03 6.857137451E+02
 4.527684767E-03 6.984995117E+02
 4.510269035E-03 7.112623291E+02
 4.493255634E-03 7.240236816E+02
 4.476627801E-03 7.367563477E+02
 4.460369702E-03 7.494908447E+02
 4.444465507E-03 7.622012939E+02
 4.428901710E-03 7.749158936E+02
 4.413661547E-03 7.876090698E+02
 4.398733377E-03 8.003021240E+02
 4.384107422E-03 8.129797974E+02
 4.369767383E-03 8.256632080E+02
 4.355705809E-03 8.383287354E+02
 4.341912456E-03 8.510018921E+02
 4.328375217E-03 8.636612549E+02
 4.315086640E-03 8.763257446E+02
 4.302036949E-03 8.889862061E+02
 4.289217759E-03 9.016419067E+02
 4.276620690E-03 9.143040161E+02
 4.264239222E-03 9.269572754E+02
 4.252065439E-03 9.396229248E+02
 4.240092356E-03 9.522821045E+02
 4.228315316E-03 9.649495850E+02
 4.216724541E-03 9.776198120E+02
 4.205316305E-03 9.902872925E+02
 4.194083624E-03 1.002970398E+03
 4.183023237E-03 1.015650574E+03
 4.172128160E-03 1.028339844E+03
 4.161395598E-03 1.041040405E+03
 4.150815774E-03 1.053734497E+03
 4.140389618E-03 1.066453369E+03
 4.130109213E-03 1.079176880E+03
 4.119972233E-03 1.091901001E+03
 4.109973088E-03 1.104645874E+03
 4.100110848E-03 1.117397217E+03
 4.090378061E-03 1.130153442E+03
 4.080773797E-03 1.142933960E+03
 4.071293399E-03 1.155716675E+03
 4.061933141E-03 1.168512329E+03
 4.052691162E-03 1.181330933E+03
 4.043565132E-03 1.194155762E+03
 4.034548067E-03 1.206991333E+03
 4.025640897E-03 1.219855225E+03
 4.016840830E-03 1.232726929E+03
 4.008142743E-03 1.245609253E+03
 3.999547102E-03 1.258520020E+03
 3.991048317E-03 1.271444580E+03
 3.982646391E-03 1.284375122E+03
 3.974338062E-03 1.297340210E+03
 3.966121469E-03 1.310319458E+03
 3.957994282E-03 1.323308228E+03
 3.949954174E-03 1.336331665E+03
 3.941998817E-03 1.349373535E+03
 3.934127279E-03 1.362428833E+03
 3.926337697E-03 1.375505127E+03
 3.918628674E-03 1.388614014E+03
 3.910995554E-03 1.401739990E+03
 3.903439734E-03 1.414878906E+03
 3.895958886E-03 1.428057007E+03
 3.888550447E-03 1.441255737E+03
 3.881213488E-03 1.454473267E+03
 3.873946611E-03 1.467715088E+03
 3.866748651E-03 1.480995239E+03
 3.859617282E-03 1.494294434E+03
 3.852551803E-03 1.507608521E+03
 3.845550353E-03 1.520967163E+03
 3.838611767E-03 1.534349121E+03
 3.831735812E-03 1.547757812E+03
 3.824919928E-03 1.561183350E+03
 3.818163415E-03 1.574656006E+03
 3.811465111E-03 1.588158569E+03
 3.804824315E-03 1.601679932E+03
 3.798239632E-03 1.615232056E+03
 3.791708732E-03 1.628826782E+03
 3.785232082E-03 1.642449829E+03
 3.778808750E-03 1.656100830E+03
 3.772437107E-03 1.669780884E+03
 3.766116221E-03 1.683505371E+03
 3.759845393E-03 1.697261963E+03
 3.753624158E-03 1.711048950E+03
 3.747449955E-03 1.724864136E+03
 3.741323715E-03 1.738732422E+03
 3.735243576E-03 1.752633423E+03
 3.729209770E-03 1.766560059E+03
 3.723219968E-03 1.780518799E+03
 3.717274172E-03 1.794534668E+03
 3.711371217E-03 1.808586792E+03
 3.705510637E-03 1.822668823E+03
 3.699692199E-03 1.836781128E+03
 3.693914739E-03 1.850951904E+03
 3.688176395E-03 1.865162109E+03
 3.682478797E-03 1.879410034E+03
 3.676820314E-03 1.893686768E+03
 3.671199549E-03 1.908020264E+03
 3.665615572E-03 1.922399414E+03
 3.660069080E-03 1.936821655E+03
 3.654559143E-03 1.951274170E+03
 3.649084596E-03 1.965770386E+03
 3.643644741E-03 1.980333496E+03
 3.638239810E-03 1.994933838E+03
 3.632867942E-03 2.009576172E+03
 3.627530066E-03 2.024253906E+03
 3.622224787E-03 2.038996948E+03
 3.616952104E-03 2.053790771E+03
 3.611710854E-03 2.068627441E+03
 3.606500570E-03 2.083510254E+03
 3.601320786E-03 2.098432617E+03
 3.596171504E-03 2.113428711E+03
 3.591052257E-03 2.128470703E+03
 3.585961415E-03 2.143564453E+03
 3.580899443E-03 2.158690430E+03
 3.575865179E-03 2.173890625E+03
 3.570858855E-03 2.189149170E+03
 3.565880004E-03 2.204459717E+03
 3.560927929E-03 2.219816162E+03
 3.556001931E-03 2.235221436E+03
 3.551102011E-03 2.250701660E+03
 3.546227468E-03 2.266237793E+03
 3.541378304E-03 2.281834717E+03
 3.536553122E-03 2.297475586E+03
 3.531753086E-03 2.313176758E+03
 3.526976332E-03 2.328953613E+03
 3.522223327E-03 2.344788574E+03
 3.517493140E-03 2.360685547E+03
 3.512785770E-03 2.376625977E+03
 3.508100519E-03 2.392644043E+03
 3.503438085E-03 2.408735596E+03
 3.498795442E-03 2.424889160E+03
 3.494176082E-03 2.441105225E+03
 3.489576047E-03 2.457369141E+03
 3.484996967E-03 2.473719727E+03
 3.480437910E-03 2.490142578E+03
 3.475899808E-03 2.506640625E+03
 3.471379401E-03 2.523188477E+03
 3.466879716E-03 2.539797363E+03
 3.462397493E-03 2.556501221E+03
 3.457934596E-03 2.573280029E+03
 3.453489859E-03 2.590132324E+03
 3.449062118E-03 2.607049805E+03
 3.444653936E-03 2.624022217E+03
 3.440261586E-03 2.641094238E+03
 3.435885767E-03 2.658251953E+03
 3.431526711E-03 2.675481445E+03
 3.427184187E-03 2.692785156E+03
 3.422857728E-03 2.710148682E+03
 3.418546636E-03 2.727613281E+03
 3.414252773E-03 2.745165527E+03
 3.409972647E-03 2.762804199E+03
 3.405708121E-03 2.780512207E+03
 3.401457332E-03 2.798291504E+03
 3.397221211E-03 2.816174316E+03
 3.393000457E-03 2.834147949E+03
 3.388792044E-03 2.852211426E+03
 3.384598065E-03 2.870366455E+03
 3.380416892E-03 2.888583984E+03
 3.376248758E-03 2.906895996E+03
 3.372093430E-03 2.925326904E+03
 3.367951373E-03 2.943846924E+03
 3.363821423E-03 2.962454346E+03
 3.359703114E-03 2.981139893E+03
 3.355598077E-03 2.999927002E+03
 3.351502120E-03 3.018829102E+03
 3.347419435E-03 3.037840576E+03
 3.343347460E-03 3.056939697E+03
 3.339286428E-03 3.076125000E+03
 3.335235640E-03 3.095404785E+03
 3.331195563E-03 3.114820557E+03
 3.327166894E-03 3.134337646E+03
 3.323146841E-03 3.153958496E+03
 3.319136798E-03 3.173674316E+03
 3.315136302E-03 3.193478027E+03
 3.311145352E-03 3.213430176E+03
 3.307163948E-03 3.233498535E+03
 3.303191857E-03 3.253675049E+03
 3.299227450E-03 3.273949463E+03
 3.295271657E-03 3.294321045E+03
 3.291324945E-03 3.314842285E+03
 3.287385451E-03 3.335491699E+03
 3.283454571E-03 3.356257812E+03
 3.279532073E-03 3.377132568E+03
 3.275615163E-03 3.398111328E+03
 3.271707101E-03 3.419234131E+03
 3.267805558E-03 3.440501221E+03
 3.263911000E-03 3.461899170E+03
 3.260023659E-03 3.483412354E+03
 3.256142372E-03 3.505037109E+03
 3.252268303E-03 3.526800537E+03
 3.248400288E-03 3.548721680E+03
 3.244537162E-03 3.570786133E+03
 3.240680788E-03 3.592979004E+03
 3.236830002E-03 3.615298828E+03
 3.232984338E-03 3.637748535E+03
 3.229144029E-03 3.660377441E+03
 3.225308610E-03 3.683145264E+03
 3.221479012E-03 3.706068115E+03
 3.217654303E-03 3.729118652E+03
 3.213833086E-03 3.752298828E+03
 3.210016759E-03 3.775679688E+03
 3.206204390E-03 3.799215576E+03
 3.202396678E-03 3.822906494E+03
 3.198592924E-03 3.846743896E+03
 3.194793127E-03 3.870703125E+03
 3.190996125E-03 3.894886230E+03
 3.187202616E-03 3.919245605E+03
 3.183412598E-03 3.943761475E+03
 3.179625608E-03 3.968433105E+03
 3.175841412E-03 3.993245361E+03
 3.172060475E-03 4.018282227E+03
 3.168281866E-03 4.043499268E+03
 3.164505586E-03 4.068904053E+03
 3.160731867E-03 4.094466553E+03
 3.156959079E-03 4.120203613E+03
 3.153190017E-03 4.146137207E+03
 3.149421420E-03 4.172294922E+03
 3.145654919E-03 4.198640625E+03
 3.141889349E-03 4.225176270E+03
 3.138126573E-03 4.251880371E+03
 3.134362632E-03 4.278798828E+03
 3.130601719E-03 4.305957031E+03
 3.126840340E-03 4.333323730E+03
 3.123079427E-03 4.360886719E+03
 3.119320376E-03 4.388636230E+03
 3.115560394E-03 4.416608887E+03
 3.111801576E-03 4.444848145E+03
 3.108042525E-03 4.473298340E+03
 3.104283474E-03 4.501969238E+03
 3.100522794E-03 4.530834961E+03
 3.096762812E-03 4.559948242E+03
 3.093002830E-03 4.589347656E+03
 3.089241218E-03 4.618979980E+03
 3.085478209E-03 4.648839844E+03
 3.081715200E-03 4.678916016E+03
 3.077949630E-03 4.709266602E+03
 3.074183129E-03 4.739905762E+03
 3.070415696E-03 4.770802246E+03
 3.066646634E-03 4.801953125E+03
 3.062874777E-03 4.833326660E+03
 3.059101757E-03 4.865010742E+03
 3.055326873E-03 4.897001953E+03
 3.051548963E-03 4.929270996E+03
 3.047767794E-03 4.961808105E+03
 3.043984529E-03 4.994575195E+03
 3.040198702E-03 5.027708984E+03
 3.036410082E-03 5.061166992E+03
 3.032618202E-03 5.094914062E+03
 3.028822830E-03 5.128942383E+03
 3.025023965E-03 5.163249023E+03
 3.021222074E-03 5.197948730E+03
 3.017415525E-03 5.232983398E+03
 3.013605252E-03 5.268338379E+03
 3.009791020E-03 5.303984863E+03
 3.005972132E-03 5.339975098E+03
 3.002149053E-03 5.376364746E+03
 2.998321783E-03 5.413107422E+03
 2.994489158E-03 5.450203125E+03
 2.990651410E-03 5.487615723E+03
 2.986809006E-03 5.525437500E+03
 2.982961014E-03 5.563669922E+03
 2.979107667E-03 5.602289062E+03
 2.975248732E-03 5.641278809E+03
 2.971385140E-03 5.680593750E+03
 2.967514098E-03 5.720428711E+03
 2.963636303E-03 5.760676758E+03
 2.959753387E-03 5.801324707E+03
 2.955863951E-03 5.842348145E+03
 2.951966831E-03 5.883846191E+03
 2.948064357E-03 5.925828613E+03
 2.944153035E-03 5.968266602E+03
 2.940235892E-03 6.011127441E+03
 2.936310600E-03 6.054398926E+03
 2.932378557E-03 6.098277344E+03
 2.928438131E-03 6.142631836E+03
 2.924489323E-03 6.187455078E+03
 2.920533065E-03 6.232712402E+03
 2.916567959E-03 6.278579590E+03
 2.912594937E-03 6.324989258E+03
 2.908612369E-03 6.371931641E+03
 2.904621419E-03 6.419364258E+03
 2.900621854E-03 6.467371582E+03
 2.896611579E-03 6.516020508E+03
 2.892591758E-03 6.565237305E+03
 2.888563555E-03 6.614999512E+03
 2.884523943E-03 6.665329102E+03
 2.880475018E-03 6.716404297E+03
 2.876415383E-03 6.768090332E+03
 2.872345038E-03 6.820375488E+03
 2.868263749E-03 6.873270508E+03
 2.864171751E-03 6.926955078E+03
 2.860068111E-03 6.981325684E+03
 2.855953295E-03 7.036347168E+03
 2.851826604E-03 7.092026855E+03
 2.847687807E-03 7.148576660E+03
 2.843537368E-03 7.205859375E+03
 2.839373192E-03 7.263838867E+03
 2.835197141E-03 7.322576660E+03
 2.831007354E-03 7.382241211E+03
 2.826804994E-03 7.442702637E+03
 2.822587965E-03 7.503932617E+03
 2.818358131E-03 7.566009766E+03
 2.814114327E-03 7.629079590E+03
 2.809855388E-03 7.693027344E+03
 2.805582248E-03 7.757751953E+03
 2.801293973E-03 7.823567383E+03
 2.796990098E-03 7.890377930E+03
 2.792670857E-03 7.958129395E+03
 2.788335551E-03 8.026768555E+03
 2.783984179E-03 8.096634766E+03
 2.779616741E-03 8.167569824E+03
 2.775243483E-03 8.239542969E+03
 2.770844148E-03 8.312737305E+03
 2.766425721E-03 8.386740234E+03
 2.762065036E-03 8.460763672E+03
 2.757771173E-03 8.534570312E+03
 2.753527137E-03 8.608471680E+03
 2.749335719E-03 8.682250000E+03
 2.745194826E-03 8.755791016E+03
 2.741105389E-03 8.829214844E+03
 2.737065544E-03 8.902668945E+03
 2.733074129E-03 8.975946289E+03
 2.729130909E-03 9.048978516E+03
 2.725235187E-03 9.122001953E+03
 2.721384633E-03 9.195003906E+03
 2.717579715E-03 9.267810547E+03
 2.713819733E-03 9.340367188E+03
 2.710101660E-03 9.413009766E+03
 2.706428058E-03 9.485562500E+03
 2.702795435E-03 9.557937500E+03
 2.699203789E-03 9.630080078E+03
 2.695652191E-03 9.702267578E+03
 2.692140639E-03 9.774390625E+03
 2.688667038E-03 9.846372070E+03
 2.685231389E-03 9.918162109E+03
 2.681833925E-03 9.989860352E+03
 2.678472549E-03 1.006157715E+04
 2.675147727E-03 1.013320215E+04
 2.671857597E-03 1.020462793E+04
 2.668602858E-03 1.027588184E+04
 2.665381646E-03 1.034720312E+04
 2.662193961E-03 1.041844824E+04
 2.659038873E-03 1.048956055E+04
 2.655916847E-03 1.056048926E+04
 2.652825555E-03 1.063132520E+04
 2.649766160E-03 1.070220117E+04
 2.646737732E-03 1.077297461E+04
 2.643739339E-03 1.084362109E+04
 2.640769817E-03 1.091404492E+04
 2.637830097E-03 1.098452148E+04
 2.634919016E-03 1.105496680E+04
 2.632035175E-03 1.112530078E+04
 2.629179973E-03 1.119550195E+04
 2.626352245E-03 1.126549707E+04
 2.623550128E-03 1.133555762E+04
 2.620775020E-03 1.140557227E+04
 2.618025290E-03 1.147549902E+04
 2.615302103E-03 1.154528809E+04
 2.612602897E-03 1.161488086E+04
 2.609928837E-03 1.168449512E+04
 2.607278526E-03 1.175412402E+04
 2.604652429E-03 1.182366895E+04
 2.602050314E-03 1.189308691E+04
 2.599470550E-03 1.196233301E+04
 2.596913837E-03 1.203150684E+04
 2.594379010E-03 1.210071973E+04
 2.591866767E-03 1.216988770E+04
 2.589376410E-03 1.223894531E+04
 2.586906776E-03 1.230790039E+04
 2.584458329E-03 1.237661426E+04
 2.582031069E-03 1.244545312E+04
 2.579623833E-03 1.251428809E+04
 2.577236854E-03 1.258297754E+04
 2.574868966E-03 1.265161914E+04
 2.572521335E-03 1.272005762E+04
 2.570192097E-03 1.278839355E+04
 2.567882184E-03 1.285683398E+04
 2.565590898E-03 1.292521484E+04
 2.563318005E-03 1.299353223E+04
 2.561062807E-03 1.306171191E+04
 2.558826003E-03 1.312976660E+04
 2.556605963E-03 1.319771484E+04
 2.554402919E-03 1.326575488E+04
 2.552217105E-03 1.333374902E+04
 2.550047822E-03 1.340166016E+04
 2.547894837E-03 1.346948340E+04
 2.545758383E-03 1.353713184E+04
 2.543637296E-03 1.360469727E+04
 2.541530877E-03 1.367236523E+04
 2.539440757E-03 1.373998438E+04
 2.537364839E-03 1.380754004E+04
 2.535304055E-03 1.387502539E+04
 2.533258172E-03 1.394236328E+04
 2.531225793E-03 1.400952344E+04
 2.529202029E-03 1.407687695E+04
 2.527181990E-03 1.414418555E+04
 2.525164513E-03 1.421150488E+04
 2.523149364E-03 1.427879785E+04
 2.521152142E-03 1.434607422E+04
 2.519172151E-03 1.441330664E+04
 2.517165150E-03 1.448063965E+04
 2.515053609E-03 1.455106152E+04
 2.512428677E-03 1.462120215E+04
 2.510684077E-03 1.469267188E+04
 2.508805832E-03 1.477501855E+04
 1.253857045E-03 1.481979688E+04
