#Flat plate skin friction results using CFL3D on 545x385, postprocessed
# (Results here given to greater accuracy than convergence tolerance)
VARIABLES = "cf","retheta"
ZONE T="Wilcox2006"
 1.224250160E-02 4.241315842E+01
 1.618589088E-02 6.338908386E+01
 7.849388756E-03 8.206765747E+01
 7.556650788E-03 1.016271667E+02
 7.412480656E-03 1.207962112E+02
 7.212481927E-03 1.392322845E+02
 6.992669776E-03 1.569801178E+02
 6.782786455E-03 1.741874847E+02
 6.597070023E-03 1.909610291E+02
 6.435475778E-03 2.073714142E+02
 6.293535698E-03 2.234764404E+02
 6.167221349E-03 2.392995758E+02
 6.053695455E-03 2.548721008E+02
 5.950833205E-03 2.702160645E+02
 5.857041106E-03 2.853515320E+02
 5.771029275E-03 3.002991028E+02
 5.691729952E-03 3.150743103E+02
 5.618274212E-03 3.296875000E+02
 5.549940281E-03 3.441553040E+02
 5.486123729E-03 3.584883118E+02
 5.426322110E-03 3.726961670E+02
 5.370099097E-03 3.867856750E+02
 5.317074247E-03 4.007678833E+02
 5.266921595E-03 4.146553345E+02
 5.219359417E-03 4.284500122E+02
 5.174145103E-03 4.421519165E+02
 5.131067242E-03 4.557686157E+02
 5.089942366E-03 4.693143005E+02
 5.050611682E-03 4.827778931E+02
 5.012932234E-03 4.961766968E+02
 4.976789467E-03 5.095053711E+02
 4.942070693E-03 5.227742310E+02
 4.908681381E-03 5.359788208E+02
 4.876530729E-03 5.491328125E+02
 4.845540039E-03 5.622249756E+02
 4.815640394E-03 5.752769165E+02
 4.786763806E-03 5.882758179E+02
 4.758851603E-03 6.012296143E+02
 4.731846042E-03 6.141430054E+02
 4.705698229E-03 6.270144043E+02
 4.680360202E-03 6.398494873E+02
 4.655788653E-03 6.526513062E+02
 4.631943069E-03 6.654140625E+02
 4.608787131E-03 6.781476440E+02
 4.586285912E-03 6.908538208E+02
 4.564407747E-03 7.035286865E+02
 4.543120041E-03 7.161774292E+02
 4.522396252E-03 7.288058472E+02
 4.502210766E-03 7.414046021E+02
 4.482538439E-03 7.539843750E+02
 4.463355988E-03 7.665468750E+02
 4.444642924E-03 7.790874023E+02
 4.426377825E-03 7.916084595E+02
 4.408542067E-03 8.041186523E+02
 4.391120281E-03 8.166128540E+02
 4.374089185E-03 8.290856323E+02
 4.357440397E-03 8.415559692E+02
 4.341153894E-03 8.540134277E+02
 4.325216636E-03 8.664530029E+02
 4.309617914E-03 8.788889771E+02
 4.294341430E-03 8.913188477E+02
 4.279376939E-03 9.037367554E+02
 4.264712334E-03 9.161458130E+02
 4.250337370E-03 9.285596313E+02
 4.236243665E-03 9.409642334E+02
 4.222418182E-03 9.533583984E+02
 4.208853468E-03 9.657629395E+02
 4.195538815E-03 9.781601562E+02
 4.182468168E-03 9.905463867E+02
 4.169633612E-03 1.002946106E+03
 4.157025833E-03 1.015346680E+03
 4.144638777E-03 1.027732178E+03
 4.132463131E-03 1.040137817E+03
 4.120495170E-03 1.052546143E+03
 4.108727910E-03 1.064943970E+03
 4.097153898E-03 1.077356323E+03
 4.085769411E-03 1.089777832E+03
 4.074566066E-03 1.102197754E+03
 4.063542001E-03 1.114622925E+03
 4.052690230E-03 1.127064575E+03
 4.042005166E-03 1.139510010E+03
 4.031483084E-03 1.151952637E+03
 4.021118395E-03 1.164423096E+03
 4.010908306E-03 1.176899292E+03
 4.000846297E-03 1.189367554E+03
 3.990931436E-03 1.201871826E+03
 3.981158603E-03 1.214381958E+03
 3.971523605E-03 1.226893311E+03
 3.962021321E-03 1.239423340E+03
 3.952652682E-03 1.251977783E+03
 3.943410702E-03 1.264536865E+03
 3.934292588E-03 1.277102539E+03
 3.925296478E-03 1.289701660E+03
 3.916419111E-03 1.302314209E+03
 3.907654900E-03 1.314922363E+03
 3.899004078E-03 1.327569458E+03
 3.890464548E-03 1.340234253E+03
 3.882030724E-03 1.352910156E+03
 3.873701673E-03 1.365596680E+03
 3.865474835E-03 1.378322510E+03
 3.857347416E-03 1.391062256E+03
 3.849318018E-03 1.403806396E+03
 3.841384081E-03 1.416587891E+03
 3.833542811E-03 1.429395020E+03
 3.825791180E-03 1.442219971E+03
 3.818130121E-03 1.455048950E+03
 3.810554277E-03 1.467929199E+03
 3.803062951E-03 1.480827637E+03
 3.795655910E-03 1.493740845E+03
 3.788328962E-03 1.506672607E+03
 3.781081177E-03 1.519651123E+03
 3.773909761E-03 1.532651123E+03
 3.766815178E-03 1.545663574E+03
 3.759794403E-03 1.558708008E+03
 3.752844874E-03 1.571793823E+03
 3.745966824E-03 1.584900879E+03
 3.739157459E-03 1.598019409E+03
 3.732414218E-03 1.611186768E+03
 3.725739894E-03 1.624390991E+03
 3.719127271E-03 1.637616089E+03
 3.712578211E-03 1.650851929E+03
 3.706090851E-03 1.664144531E+03
 3.699665656E-03 1.677474243E+03
 3.693297738E-03 1.690826416E+03
 3.686987329E-03 1.704190674E+03
 3.680733265E-03 1.717615723E+03
 3.674534615E-03 1.731078613E+03
 3.668389050E-03 1.744569336E+03
 3.662296804E-03 1.758071167E+03
 3.656257177E-03 1.771632324E+03
 3.650267608E-03 1.785241333E+03
 3.644325305E-03 1.798876953E+03
 3.638432827E-03 1.812530640E+03
 3.632586682E-03 1.826234619E+03
 3.626787569E-03 1.839990112E+03
 3.621032694E-03 1.853785034E+03
 3.615323221E-03 1.867599731E+03
 3.609655192E-03 1.881451050E+03
 3.604030702E-03 1.895369385E+03
 3.598446492E-03 1.909329102E+03
 3.592903493E-03 1.923313599E+03
 3.587399609E-03 1.937322632E+03
 3.581934376E-03 1.951410645E+03
 3.576507792E-03 1.965540039E+03
 3.571117530E-03 1.979710083E+03
 3.565762891E-03 1.993893921E+03
 3.560443409E-03 2.008149902E+03
 3.555160714E-03 2.022463989E+03
 3.549911082E-03 2.036818604E+03
 3.544694977E-03 2.051202148E+03
 3.539510537E-03 2.065627686E+03
 3.534359625E-03 2.080130371E+03
 3.529238515E-03 2.094679688E+03
 3.524148604E-03 2.109272461E+03
 3.519088263E-03 2.123881592E+03
 3.514057491E-03 2.138580078E+03
 3.509056754E-03 2.153341064E+03
 3.504081629E-03 2.168142578E+03
 3.499134211E-03 2.182981689E+03
 3.494216129E-03 2.197859863E+03
 3.489323892E-03 2.212833496E+03
 3.484456101E-03 2.227856934E+03
 3.479614621E-03 2.242928223E+03
 3.474798752E-03 2.258025146E+03
 3.470007563E-03 2.273201172E+03
 3.465238726E-03 2.288454346E+03
 3.460494103E-03 2.303762695E+03
 3.455772763E-03 2.319114502E+03
 3.451073775E-03 2.334495850E+03
 3.446397604E-03 2.349980713E+03
 3.441742389E-03 2.365533691E+03
 3.437109292E-03 2.381145996E+03
 3.432496451E-03 2.396796387E+03
 3.427903168E-03 2.412490234E+03
 3.423332004E-03 2.428294922E+03
 3.418779001E-03 2.444166992E+03
 3.414246254E-03 2.460093750E+03
 3.409732133E-03 2.476058838E+03
 3.405237338E-03 2.492093994E+03
 3.400760004E-03 2.508234375E+03
 3.396301996E-03 2.524444336E+03
 3.391859354E-03 2.540705078E+03
 3.387435107E-03 2.557009521E+03
 3.383026924E-03 2.573404541E+03
 3.378636204E-03 2.589901367E+03
 3.374263411E-03 2.606465088E+03
 3.369904589E-03 2.623087402E+03
 3.365561366E-03 2.639739746E+03
 3.361233976E-03 2.656518799E+03
 3.356922884E-03 2.673392822E+03
 3.352624597E-03 2.690334473E+03
 3.348342143E-03 2.707339600E+03
 3.344075056E-03 2.724372314E+03
 3.339820076E-03 2.741556396E+03
 3.335579997E-03 2.758824463E+03
 3.331352258E-03 2.776167480E+03
 3.327138955E-03 2.793574707E+03
 3.322939388E-03 2.811026123E+03
 3.318751464E-03 2.828627686E+03
 3.314575646E-03 2.846316895E+03
 3.310411703E-03 2.864090576E+03
 3.306261729E-03 2.881928711E+03
 3.302122699E-03 2.899810547E+03
 3.297995077E-03 2.917857422E+03
 3.293879563E-03 2.935995850E+03
 3.289773595E-03 2.954219238E+03
 3.285681363E-03 2.972518799E+03
 3.281596815E-03 2.990865234E+03
 3.277524142E-03 3.009378906E+03
 3.273461247E-03 3.027998535E+03
 3.269409528E-03 3.046704590E+03
 3.265367355E-03 3.065488037E+03
 3.261334728E-03 3.084323486E+03
 3.257311648E-03 3.103340576E+03
 3.253297880E-03 3.122463135E+03
 3.249292960E-03 3.141676025E+03
 3.245297354E-03 3.160979736E+03
 3.241309896E-03 3.180337158E+03
 3.237331286E-03 3.199886475E+03
 3.233361524E-03 3.219550781E+03
 3.229399910E-03 3.239316895E+03
 3.225445747E-03 3.259172852E+03
 3.221499268E-03 3.279078125E+03
 3.217561403E-03 3.299190430E+03
 3.213630524E-03 3.319425781E+03
 3.209707327E-03 3.339773438E+03
 3.205789486E-03 3.360216553E+03
 3.201879561E-03 3.380713379E+03
 3.197977552E-03 3.401429688E+03
 3.194081364E-03 3.422273926E+03
 3.190191230E-03 3.443238281E+03
 3.186307382E-03 3.464303467E+03
 3.182430286E-03 3.485437500E+03
 3.178559477E-03 3.506777344E+03
 3.174693789E-03 3.528274658E+03
 3.170832526E-03 3.549903076E+03
 3.166978480E-03 3.571638428E+03
 3.163129324E-03 3.593443604E+03
 3.159285290E-03 3.615463623E+03
 3.155444749E-03 3.637653076E+03
 3.151611425E-03 3.659980225E+03
 3.147781594E-03 3.682435547E+03
 3.143956885E-03 3.704960205E+03
 3.140136367E-03 3.727696289E+03
 3.136318875E-03 3.750633301E+03
 3.132506739E-03 3.773708496E+03
 3.128698561E-03 3.796915039E+03
 3.124894109E-03 3.820215332E+03
 3.121093381E-03 3.843732422E+03
 3.117294284E-03 3.867453369E+03
 3.113499843E-03 3.891336914E+03
 3.109708894E-03 3.915354004E+03
 3.105920739E-03 3.939468018E+03
 3.102134913E-03 3.963818115E+03
 3.098352347E-03 3.988388672E+03
 3.094572574E-03 4.013122803E+03
 3.090795362E-03 4.038010742E+03
 3.087019315E-03 4.062997559E+03
 3.083246294E-03 4.088248291E+03
 3.079474671E-03 4.113727539E+03
 3.075706074E-03 4.139387695E+03
 3.071937477E-03 4.165203613E+03
 3.068171907E-03 4.191124023E+03
 3.064406803E-03 4.217345215E+03
 3.060644493E-03 4.243790039E+03
 3.056881949E-03 4.270440430E+03
 3.053119406E-03 4.297251953E+03
 3.049359191E-03 4.324161621E+03
 3.045599209E-03 4.351438477E+03
 3.041840158E-03 4.378934570E+03
 3.038082039E-03 4.406639648E+03
 3.034322988E-03 4.434518555E+03
 3.030563938E-03 4.462521973E+03
 3.026805585E-03 4.490905762E+03
 3.023047233E-03 4.519535156E+03
 3.019287484E-03 4.548373535E+03
 3.015527967E-03 4.577393555E+03
 3.011768684E-03 4.606592285E+03
 3.008007072E-03 4.636172852E+03
 3.004244063E-03 4.666022461E+03
 3.000481054E-03 4.696085938E+03
 2.996717347E-03 4.726326660E+03
 2.992952010E-03 4.756815430E+03
 2.989184344E-03 4.787702148E+03
 2.985416213E-03 4.818847656E+03
 2.981644822E-03 4.850233398E+03
 2.977872500E-03 4.881775391E+03
 2.974097617E-03 4.913701172E+03
 2.970320405E-03 4.945982422E+03
 2.966541098E-03 4.978545410E+03
 2.962758997E-03 5.011334961E+03
 2.958974335E-03 5.044307129E+03
 2.955186181E-03 5.077777832E+03
 2.951395698E-03 5.111579102E+03
 2.947601490E-03 5.145660156E+03
 2.943804022E-03 5.179961914E+03
 2.940003527E-03 5.214594238E+03
 2.936198609E-03 5.249688965E+03
 2.932390198E-03 5.285120605E+03
 2.928577829E-03 5.320848633E+03
 2.924760571E-03 5.356741699E+03
 2.920938889E-03 5.393226074E+03
 2.917113947E-03 5.430083496E+03
 2.913283417E-03 5.467283691E+03
 2.909447998E-03 5.504751953E+03
 2.905607224E-03 5.542574219E+03
 2.901762258E-03 5.580950684E+03
 2.897911472E-03 5.619731934E+03
 2.894053934E-03 5.658829590E+03
 2.890191972E-03 5.698157715E+03
 2.886324190E-03 5.738178711E+03
 2.882449888E-03 5.778620117E+03
 2.878568601E-03 5.819449219E+03
 2.874681260E-03 5.860561035E+03
 2.870788332E-03 5.902231934E+03
 2.866887022E-03 5.944468262E+03
 2.862979425E-03 5.987145020E+03
 2.859064378E-03 6.030164551E+03
 2.855141647E-03 6.073629395E+03
 2.851211932E-03 6.117799316E+03
 2.847273368E-03 6.162461914E+03
 2.843327122E-03 6.207518555E+03
 2.839373192E-03 6.252970703E+03
 2.835410647E-03 6.299211914E+03
 2.831439022E-03 6.346016113E+03
 2.827458084E-03 6.393259766E+03
 2.823468298E-03 6.440871094E+03
 2.819469897E-03 6.489375488E+03
 2.815460786E-03 6.538479980E+03
 2.811442362E-03 6.588076172E+03
 2.807414858E-03 6.638067383E+03
 2.803376177E-03 6.689034180E+03
 2.799326787E-03 6.740639648E+03
 2.795266686E-03 6.792774414E+03
 2.791196341E-03 6.845352051E+03
 2.787114820E-03 6.898981445E+03
 2.783020958E-03 6.953293457E+03
 2.778915921E-03 7.008180176E+03
 2.774798544E-03 7.063623535E+03
 2.770669060E-03 7.120148438E+03
 2.766526537E-03 7.177431641E+03
 2.762371674E-03 7.235242676E+03
 2.758203773E-03 7.293841797E+03
 2.754022134E-03 7.353556152E+03
 2.749826992E-03 7.414033203E+03
 2.745618578E-03 7.474988770E+03
 2.741394565E-03 7.537205078E+03
 2.737157280E-03 7.600400879E+03
 2.732903697E-03 7.664341797E+03
 2.728635678E-03 7.728918457E+03
 2.724351361E-03 7.794937012E+03
 2.720051678E-03 7.861909668E+03
 2.715734998E-03 7.929506836E+03
 2.711402019E-03 7.998376953E+03
 2.707061823E-03 8.068616699E+03
 2.702697413E-03 8.139768555E+03
 2.698313678E-03 8.211294922E+03
 2.693985822E-03 8.283439453E+03
 2.689722693E-03 8.355406250E+03
 2.685508691E-03 8.426780273E+03
 2.681346145E-03 8.498548828E+03
 2.677234123E-03 8.570267578E+03
 2.673172392E-03 8.641656250E+03
 2.669159789E-03 8.712647461E+03
 2.665196080E-03 8.784006836E+03
 2.661279170E-03 8.855239258E+03
 2.657409059E-03 8.926052734E+03
 2.653584117E-03 8.996729492E+03
 2.649804112E-03 9.067645508E+03
 2.646068111E-03 9.138394531E+03
 2.642374951E-03 9.208703125E+03
 2.638723934E-03 9.279006836E+03
 2.635114361E-03 9.349506836E+03
 2.631545300E-03 9.419833984E+03
 2.628015820E-03 9.489741211E+03
 2.624525921E-03 9.559638672E+03
 2.621073276E-03 9.629713867E+03
 2.617658582E-03 9.699648438E+03
 2.614280675E-03 9.769237305E+03
 2.610939089E-03 9.838633789E+03
 2.607632661E-03 9.908308594E+03
 2.604362089E-03 9.977865234E+03
 2.601124812E-03 1.004719043E+04
 2.597921295E-03 1.011607129E+04
 2.594750375E-03 1.018534863E+04
 2.591612283E-03 1.025457422E+04
 2.588505857E-03 1.032361719E+04
 2.585431095E-03 1.039230469E+04
 2.582386602E-03 1.046089844E+04
 2.579372376E-03 1.052975684E+04
 2.576387953E-03 1.059850879E+04
 2.573433099E-03 1.066703809E+04
 2.570505952E-03 1.073510742E+04
 2.567608142E-03 1.080353906E+04
 2.564737108E-03 1.087195312E+04
 2.561893780E-03 1.094026465E+04
 2.559077693E-03 1.100831738E+04
 2.556288149E-03 1.107593848E+04
 2.553524217E-03 1.114399609E+04
 2.550785895E-03 1.121203418E+04
 2.548072953E-03 1.127990820E+04
 2.545384457E-03 1.134755371E+04
 2.542721340E-03 1.141475000E+04
 2.540081972E-03 1.148241992E+04
 2.537465887E-03 1.155003418E+04
 2.534873085E-03 1.161754102E+04
 2.532304032E-03 1.168481641E+04
 2.529758029E-03 1.175169531E+04
 2.527233912E-03 1.181883887E+04
 2.524731681E-03 1.188604785E+04
 2.522251336E-03 1.195318848E+04
 2.519794041E-03 1.202014062E+04
 2.517357236E-03 1.208678223E+04
 2.514941618E-03 1.215333203E+04
 2.512546955E-03 1.222014648E+04
 2.510172781E-03 1.228693945E+04
 2.507820027E-03 1.235357617E+04
 2.505487064E-03 1.241999316E+04
 2.503174124E-03 1.248601855E+04
 2.500881441E-03 1.255235938E+04
 2.498608548E-03 1.261873145E+04
 2.496355679E-03 1.268506836E+04
 2.494122600E-03 1.275122656E+04
 2.491910476E-03 1.281711816E+04
 2.489716746E-03 1.288268262E+04
 2.487543272E-03 1.294864648E+04
 2.485390054E-03 1.301458105E+04
 2.483257093E-03 1.308040332E+04
 2.481145319E-03 1.314608887E+04
 2.479054267E-03 1.321150586E+04
 2.476983937E-03 1.327651172E+04
 2.474935725E-03 1.334199414E+04
 2.472911263E-03 1.340739941E+04
 2.470910549E-03 1.347268457E+04
 2.468937077E-03 1.353780859E+04
 2.466993406E-03 1.360265527E+04
 2.465080936E-03 1.366703418E+04
 2.463198267E-03 1.373169043E+04
 2.461348195E-03 1.379630078E+04
 2.459531184E-03 1.386072461E+04
 2.457757015E-03 1.392487695E+04
 2.456051763E-03 1.398862695E+04
 2.454445465E-03 1.405169238E+04
 2.452981425E-03 1.411385156E+04
 2.451687120E-03 1.417599316E+04
 2.450327855E-03 1.423874219E+04
 2.449504100E-03 1.430214355E+04
 2.447874518E-03 1.436029492E+04
 1.223447965E-03 1.438681348E+04
