# Extracted profiles of:
#       Mean density                    rho/rho_infty
# 	Mean streamwise velocity	U/U_infty
# 	Mean cross-stream velocity	V/U_infty
# 	Mean pressure           	p/p_infty
# 	uu Stress component		uu/(U_infty^2)
# 	vv Stress component		vv/(U_infty^2)
# 	ww Stress component		ww/(U_infty^2)
# 	uv Stress component		uv/(U_infty^2)
# 	Turbulence kinetic energy	(uu+vv+ww)/(2*U_infty^2)
#
# From LES simulatations of the flow over a wall-mounted hump by Ali Uzun
VARIABLES = "x/c","y/c","rho/rhoinf","U/Uinf","V/Uinf","p/pinf","uu/Uinf^2","vv/Uinf^2","ww/Uinf^2","uv/Uinf^2","k/Uinf^2"
ZONE T="x/c=-2.00"
 -2.000000000E+00 7.713619561E-05 9.995142817E-01 1.034650356E-01 1.158731379E-06 9.999857545E-01 1.784945722E-03 2.523128387E-06 4.939830396E-04 -2.258588756E-05 1.140725915E-03
 -2.000000000E+00 1.361542847E-03 9.999322891E-01 6.003956795E-01 3.838561679E-05 9.999662042E-01 8.632289246E-03 1.398066059E-03 3.870899323E-03 -1.347568003E-03 6.950627081E-03
 -2.000000000E+00 2.645949367E-03 9.999570847E-01 6.557342410E-01 5.589749708E-05 9.999588728E-01 6.306570023E-03 1.921321847E-03 3.673547180E-03 -1.385868876E-03 5.950719584E-03
 -2.000000000E+00 3.930355888E-03 9.999632835E-01 6.846404672E-01 7.771550008E-05 9.999579191E-01 5.660897121E-03 1.985298702E-03 3.436754923E-03 -1.378781162E-03 5.541475490E-03
 -2.000000000E+00 5.214762874E-03 9.999642372E-01 7.070178390E-01 9.843314911E-05 9.999607205E-01 5.127262790E-03 1.780748251E-03 2.944299951E-03 -1.348669408E-03 4.926155321E-03
 -2.000000000E+00 6.499169394E-03 9.999673963E-01 7.256180048E-01 1.337489666E-04 9.999595881E-01 4.887717310E-03 1.857445226E-03 2.915147226E-03 -1.343632466E-03 4.830154590E-03
 -2.000000000E+00 7.783575915E-03 9.999677539E-01 7.410885692E-01 1.460969361E-04 9.999586344E-01 4.716510419E-03 1.919638133E-03 2.878587227E-03 -1.341162249E-03 4.757368006E-03
 -2.000000000E+00 9.067982435E-03 9.999678135E-01 7.549429536E-01 1.668336481E-04 9.999582171E-01 4.568025004E-03 1.951285521E-03 2.859583590E-03 -1.327213831E-03 4.689447116E-03
 -2.000000000E+00 1.035238896E-02 9.999678731E-01 7.677737474E-01 1.861492201E-04 9.999579191E-01 4.437972326E-03 1.970045734E-03 2.815698972E-03 -1.311730244E-03 4.611858632E-03
 -2.000000000E+00 1.163679548E-02 9.999679923E-01 7.795074582E-01 1.961157541E-04 9.999577999E-01 4.335416481E-03 1.978376182E-03 2.772331238E-03 -1.303053927E-03 4.543061834E-03
 -2.000000000E+00 1.292120293E-02 9.999681711E-01 7.903451920E-01 2.067375899E-04 9.999577999E-01 4.231145605E-03 1.974725397E-03 2.737751929E-03 -1.292854315E-03 4.471811466E-03
 -2.000000000E+00 1.420560945E-02 9.999684691E-01 8.005872369E-01 2.188308426E-04 9.999580383E-01 4.115833435E-03 1.958796987E-03 2.714160131E-03 -1.281087287E-03 4.394395277E-03
 -2.000000000E+00 1.549001597E-02 9.999688268E-01 8.104634285E-01 2.348411945E-04 9.999583364E-01 4.002168309E-03 1.934213797E-03 2.693496179E-03 -1.268580672E-03 4.314939026E-03
 -2.000000000E+00 1.677442156E-02 9.999691844E-01 8.200843334E-01 2.596860868E-04 9.999586940E-01 3.906925675E-03 1.907621743E-03 2.655949676E-03 -1.254051458E-03 4.235248547E-03
 -2.000000000E+00 1.805882901E-02 9.999696016E-01 8.294368982E-01 2.929383772E-04 9.999591112E-01 3.820783691E-03 1.877262257E-03 2.605531598E-03 -1.235160395E-03 4.151788540E-03
 -2.000000000E+00 1.934323646E-02 9.999700189E-01 8.384867907E-01 3.300145618E-04 9.999596477E-01 3.723849310E-03 1.840012148E-03 2.551832469E-03 -1.210694318E-03 4.057846963E-03
 -2.000000000E+00 2.062764205E-02 9.999705553E-01 8.472450376E-01 3.665307304E-04 9.999602437E-01 3.622767981E-03 1.795429969E-03 2.492546570E-03 -1.183454879E-03 3.955372144E-03
 -2.000000000E+00 2.191204950E-02 9.999711514E-01 8.557096124E-01 4.014039587E-04 9.999609590E-01 3.530735848E-03 1.744935871E-03 2.425659914E-03 -1.157592284E-03 3.850665875E-03
 -2.000000000E+00 2.319645509E-02 9.999717474E-01 8.639225960E-01 4.363568733E-04 9.999617338E-01 3.431503428E-03 1.691183075E-03 2.353160176E-03 -1.130316872E-03 3.737923456E-03
 -2.000000000E+00 2.448086254E-02 9.999722838E-01 8.719940782E-01 4.738410644E-04 9.999624491E-01 3.311118111E-03 1.637171023E-03 2.268449636E-03 -1.098483102E-03 3.608369268E-03
 -2.000000000E+00 2.576526813E-02 9.999728799E-01 8.800000548E-01 5.145719042E-04 9.999632239E-01 3.178049345E-03 1.583574689E-03 2.169679385E-03 -1.062928815E-03 3.465651767E-03
 -2.000000000E+00 2.704967558E-02 9.999735355E-01 8.879309297E-01 5.573955132E-04 9.999639988E-01 3.044340294E-03 1.528786845E-03 2.065578476E-03 -1.025358913E-03 3.319352865E-03
 -2.000000000E+00 2.833408304E-02 9.999741912E-01 8.956876993E-01 6.011797814E-04 9.999648333E-01 2.915547229E-03 1.470375573E-03 1.962566515E-03 -9.874368552E-04 3.174244659E-03
 -2.000000000E+00 2.961848862E-02 9.999748468E-01 9.031916261E-01 6.455533439E-04 9.999656677E-01 2.798979869E-03 1.408360549E-03 1.859015669E-03 -9.499589796E-04 3.033177927E-03
 -2.000000000E+00 3.090289608E-02 9.999755025E-01 9.104488492E-01 6.908735959E-04 9.999665618E-01 2.688900800E-03 1.344608609E-03 1.756807324E-03 -9.110641549E-04 2.895158483E-03
 -2.000000000E+00 3.218730167E-02 9.999762177E-01 9.174837470E-01 7.376499707E-04 9.999674559E-01 2.577788429E-03 1.280251192E-03 1.654572319E-03 -8.694396820E-04 2.756305970E-03
 -2.000000000E+00 3.347170725E-02 9.999768734E-01 9.243260026E-01 7.863477804E-04 9.999683499E-01 2.459811280E-03 1.216070028E-03 1.550707151E-03 -8.242946933E-04 2.613294171E-03
 -2.000000000E+00 3.475611657E-02 9.999775887E-01 9.309249520E-01 8.406162960E-04 9.999692440E-01 2.328109927E-03 1.152591314E-03 1.438527484E-03 -7.751156809E-04 2.459614305E-03
 -2.000000000E+00 3.604052216E-02 9.999783039E-01 9.373750091E-01 9.001019644E-04 9.999701977E-01 2.188521670E-03 1.086359494E-03 1.323719276E-03 -7.243893924E-04 2.299300395E-03
 -2.000000000E+00 3.732492775E-02 9.999790192E-01 9.436892867E-01 9.642110090E-04 9.999712110E-01 2.041220432E-03 1.017395640E-03 1.206426998E-03 -6.720189122E-04 2.132521477E-03
 -2.000000000E+00 3.860933334E-02 9.999797940E-01 9.497800469E-01 1.035238965E-03 9.999722242E-01 1.880189171E-03 9.433033993E-04 1.085031428E-03 -6.163017824E-04 1.954261912E-03
 -2.000000000E+00 3.989374265E-02 9.999805689E-01 9.556316733E-01 1.108752913E-03 9.999732971E-01 1.723706722E-03 8.713635034E-04 9.760333924E-04 -5.597075215E-04 1.785551780E-03
 -2.000000000E+00 4.117814824E-02 9.999813437E-01 9.613141418E-01 1.183197019E-03 9.999742508E-01 1.568915904E-03 8.010366582E-04 8.740294143E-04 -5.028172745E-04 1.621991047E-03
 -2.000000000E+00 4.246255383E-02 9.999820590E-01 9.665546417E-01 1.254420495E-03 9.999752045E-01 1.409421326E-03 7.356713759E-04 7.789826486E-04 -4.474622256E-04 1.462037675E-03
 -2.000000000E+00 4.374696314E-02 9.999827147E-01 9.714893699E-01 1.320985495E-03 9.999760985E-01 1.250763074E-03 6.720112287E-04 6.876086700E-04 -3.947987279E-04 1.305191545E-03
 -2.000000000E+00 4.503136873E-02 9.999833703E-01 9.760898948E-01 1.382376067E-03 9.999769926E-01 1.093008672E-03 6.101625622E-04 6.002145237E-04 -3.450614167E-04 1.151692821E-03
 -2.000000000E+00 4.631577432E-02 9.999840260E-01 9.801023006E-01 1.434666105E-03 9.999778271E-01 9.470911464E-04 5.518436083E-04 5.224999622E-04 -3.008451313E-04 1.010717358E-03
 -2.000000000E+00 4.760017991E-02 9.999846220E-01 9.839183688E-01 1.484056120E-03 9.999786615E-01 8.052085177E-04 4.947067937E-04 4.479249183E-04 -2.583401802E-04 8.739201585E-04
 -2.000000000E+00 4.888458923E-02 9.999851584E-01 9.870437980E-01 1.524967956E-03 9.999793768E-01 6.783026038E-04 4.419043253E-04 3.835607786E-04 -2.205092314E-04 7.518838975E-04
 -2.000000000E+00 5.016899481E-02 9.999856949E-01 9.899768233E-01 1.564162434E-03 9.999800920E-01 5.576832918E-04 3.905828344E-04 3.223539970E-04 -1.839840406E-04 6.353100762E-04
 -2.000000000E+00 5.145340040E-02 9.999861717E-01 9.924080968E-01 1.598851639E-03 9.999808073E-01 4.533847386E-04 3.431002551E-04 2.693470742E-04 -1.508367568E-04 5.329160485E-04
 -2.000000000E+00 5.273780972E-02 9.999866486E-01 9.945570827E-01 1.630946761E-03 9.999814630E-01 3.621049400E-04 2.985912724E-04 2.215415007E-04 -1.207828318E-04 4.411188711E-04
 -2.000000000E+00 5.402221531E-02 9.999870658E-01 9.963359833E-01 1.659605186E-03 9.999819994E-01 2.878337109E-04 2.579728316E-04 1.805600914E-04 -9.478079301E-05 3.631832951E-04
 -2.000000000E+00 5.530662090E-02 9.999874830E-01 9.977905750E-01 1.684019691E-03 9.999825358E-01 2.282821806E-04 2.216341527E-04 1.458033221E-04 -7.340547745E-05 2.978598350E-04
 -2.000000000E+00 5.659102648E-02 9.999878407E-01 9.989640117E-01 1.704708440E-03 9.999830127E-01 1.814579300E-04 1.890128624E-04 1.164416535E-04 -5.606537889E-05 2.434562339E-04
 -2.000000000E+00 5.787543580E-02 9.999881387E-01 9.998438358E-01 1.720253844E-03 9.999833703E-01 1.453817677E-04 1.608631719E-04 9.306102584E-05 -4.282473310E-05 1.996529754E-04
 -2.000000000E+00 5.915984139E-02 9.999883771E-01 1.000517368E+00 1.732143457E-03 9.999837279E-01 1.168287272E-04 1.358627487E-04 7.386705693E-05 -3.249216024E-05 1.632792701E-04
 -2.000000000E+00 6.044424698E-02 9.999885559E-01 1.000993133E+00 1.740052947E-03 9.999840260E-01 9.443729505E-05 1.147401344E-04 5.911476910E-05 -2.474625580E-05 1.341461029E-04
 -2.000000000E+00 6.172865629E-02 9.999887943E-01 1.001331568E+00 1.745172776E-03 9.999842644E-01 7.630315667E-05 9.631062130E-05 4.743552199E-05 -1.881524076E-05 1.100246445E-04
 -2.000000000E+00 6.301306188E-02 9.999889135E-01 1.001574159E+00 1.748443232E-03 9.999845028E-01 6.184670201E-05 8.083171997E-05 3.812844443E-05 -1.433206307E-05 9.040343139E-05
 -2.000000000E+00 6.429746747E-02 9.999890327E-01 1.001737118E+00 1.750172931E-03 9.999846816E-01 5.042259363E-05 6.779818796E-05 3.078324517E-05 -1.106088166E-05 7.450201520E-05
 -2.000000000E+00 6.558187306E-02 9.999891520E-01 1.001864791E+00 1.751418109E-03 9.999848008E-01 4.108151916E-05 5.667018922E-05 2.451072214E-05 -8.436623830E-06 6.113121344E-05
 -2.000000000E+00 6.686627865E-02 9.999892116E-01 1.001950979E+00 1.752100768E-03 9.999849200E-01 3.417922562E-05 4.779272786E-05 1.949487159E-05 -6.586610198E-06 5.073341163E-05
 -2.000000000E+00 6.815068424E-02 9.999893308E-01 1.002024293E+00 1.752636745E-03 9.999850392E-01 2.819176916E-05 3.989826655E-05 1.511855953E-05 -4.956426437E-06 4.160429671E-05
 -2.000000000E+00 6.943509728E-02 9.999893904E-01 1.002071619E+00 1.752884593E-03 9.999851584E-01 2.405262057E-05 3.401343929E-05 1.203532338E-05 -3.789944003E-06 3.505069253E-05
 -2.000000000E+00 7.071950287E-02 9.999894500E-01 1.002114296E+00 1.753028366E-03 9.999852180E-01 2.018911619E-05 2.846320240E-05 9.188757758E-06 -2.706954092E-06 2.892053817E-05
 -2.000000000E+00 7.200390846E-02 9.999894500E-01 1.002132654E+00 1.752633369E-03 9.999852777E-01 1.774679549E-05 2.466128535E-05 7.568114142E-06 -2.083512982E-06 2.498809772E-05
 -2.000000000E+00 7.328831404E-02 9.999895096E-01 1.002151132E+00 1.752239536E-03 9.999852777E-01 1.530378177E-05 2.085741289E-05 5.946640613E-06 -1.458245833E-06 2.105391832E-05
 -2.000000000E+00 7.457271963E-02 9.999895096E-01 1.002149343E+00 1.751190401E-03 9.999853373E-01 1.374753901E-05 1.841229459E-05 5.015564966E-06 -1.224970106E-06 1.858769974E-05
 -2.000000000E+00 7.585712522E-02 9.999895096E-01 1.002146721E+00 1.750112278E-03 9.999853373E-01 1.222811716E-05 1.602738121E-05 4.113781415E-06 -1.012073085E-06 1.618464012E-05
 -2.000000000E+00 7.714153081E-02 9.999895692E-01 1.002137184E+00 1.748793758E-03 9.999853969E-01 1.105047158E-05 1.427437110E-05 3.478377721E-06 -9.047393519E-07 1.440161031E-05
 -2.000000000E+00 7.842594385E-02 9.999895692E-01 1.002125025E+00 1.747382572E-03 9.999853969E-01 1.000297198E-05 1.277168212E-05 2.945697361E-06 -8.484902310E-07 1.286017596E-05
 -2.000000000E+00 7.971034944E-02 9.999895692E-01 1.002112985E+00 1.745987101E-03 9.999853969E-01 9.105433492E-06 1.149455238E-05 2.510221293E-06 -7.923621865E-07 1.155510290E-05
 -2.000000000E+00 8.099475503E-02 9.999895692E-01 1.002100945E+00 1.744615613E-03 9.999853969E-01 8.384184184E-06 1.049797538E-05 2.190139639E-06 -7.570645266E-07 1.053614960E-05
 -2.000000000E+00 8.227916062E-02 9.999895692E-01 1.002089381E+00 1.743267989E-03 9.999853969E-01 7.703439223E-06 9.548166418E-06 1.887840540E-06 -7.158602102E-07 9.569723261E-06
 -2.000000000E+00 8.356356621E-02 9.999895692E-01 1.002080560E+00 1.742050750E-03 9.999853969E-01 7.217048278E-06 8.842857824E-06 1.671470727E-06 -6.794630849E-07 8.865688869E-06
 -2.000000000E+00 8.484797180E-02 9.999895692E-01 1.002071738E+00 1.740833279E-03 9.999853969E-01 6.730622317E-06 8.137292753E-06 1.455084771E-06 -6.426549817E-07 8.161499863E-06
 -2.000000000E+00 8.613237739E-02 9.999895692E-01 1.002064586E+00 1.739671105E-03 9.999853969E-01 6.374157238E-06 7.587104847E-06 1.294028834E-06 -6.115437827E-07 7.627645118E-06
 -2.000000000E+00 8.741679043E-02 9.999895692E-01 1.002057672E+00 1.738520456E-03 9.999853969E-01 6.037597359E-06 7.063545127E-06 1.141516805E-06 -5.867953519E-07 7.121329418E-06
 -2.000000000E+00 8.870119601E-02 9.999895692E-01 1.002051115E+00 1.737343846E-03 9.999853969E-01 5.750835498E-06 6.601733276E-06 1.012755206E-06 -5.607237767E-07 6.682661933E-06
 -2.000000000E+00 8.998560160E-02 9.999895692E-01 1.002044797E+00 1.736153965E-03 9.999853969E-01 5.505796707E-06 6.198878509E-06 9.040169857E-07 -5.473226565E-07 6.304346243E-06
 -2.000000000E+00 9.127000719E-02 9.999895692E-01 1.002038717E+00 1.734949765E-03 9.999853969E-01 5.274590421E-06 5.811957180E-06 8.012881381E-07 -5.304148090E-07 5.943918040E-06
 -2.000000000E+00 9.255441278E-02 9.999895692E-01 1.002033472E+00 1.733706915E-03 9.999853969E-01 5.094693734E-06 5.495989626E-06 7.208931834E-07 -5.226044664E-07 5.655788300E-06
 -2.000000000E+00 9.383881837E-02 9.999895692E-01 1.002028227E+00 1.732463716E-03 9.999853969E-01 4.914749752E-06 5.179634627E-06 6.404876558E-07 -5.141767474E-07 5.367435733E-06
 -2.000000000E+00 9.512322396E-02 9.999895692E-01 1.002024889E+00 1.731203520E-03 9.999853969E-01 4.782650194E-06 4.918686500E-06 5.775696650E-07 -5.088141961E-07 5.139453151E-06
 -2.000000000E+00 9.640763700E-02 9.999895692E-01 1.002021909E+00 1.729944139E-03 9.999853969E-01 4.657664249E-06 4.667741450E-06 5.171373800E-07 -5.072920430E-07 4.921271739E-06
 -2.000000000E+00 9.769204259E-02 9.999895692E-01 1.002020240E+00 1.728688017E-03 9.999853969E-01 4.555953637E-06 4.439496024E-06 4.645906415E-07 -5.034680157E-07 4.730020009E-06
 -2.000000000E+00 9.897644818E-02 9.999895692E-01 1.002019763E+00 1.727443654E-03 9.999853969E-01 4.475655260E-06 4.236355380E-06 4.189177503E-07 -5.056929808E-07 4.565464224E-06
 -2.000000000E+00 1.002608538E-01 9.999895692E-01 1.002019763E+00 1.726196264E-03 9.999853969E-01 4.401934802E-06 4.038399311E-06 3.753871454E-07 -5.060618946E-07 4.407860615E-06
 -2.000000000E+00 1.015452594E-01 9.999895692E-01 1.002021074E+00 1.724952017E-03 9.999853969E-01 4.356967111E-06 3.869328793E-06 3.404427105E-07 -5.103551644E-07 4.283369435E-06
 -2.000000000E+00 1.028296649E-01 9.999895692E-01 1.002022266E+00 1.723707537E-03 9.999853969E-01 4.311927569E-06 3.700097523E-06 3.054950071E-07 -5.144618740E-07 4.158760021E-06
 -2.000000000E+00 1.041140705E-01 9.999895692E-01 1.002023697E+00 1.722455490E-03 9.999853969E-01 4.292215635E-06 3.554669775E-06 2.781812327E-07 -5.193097081E-07 4.062533208E-06
 -2.000000000E+00 1.053984836E-01 9.999895692E-01 1.002025127E+00 1.721204608E-03 9.999853969E-01 4.277084827E-06 3.414003004E-06 2.520567364E-07 -5.251997095E-07 3.971572369E-06
 -2.000000000E+00 1.066828892E-01 9.999895692E-01 1.002026081E+00 1.719941618E-03 9.999853969E-01 4.269733836E-06 3.281185627E-06 2.284546099E-07 -5.301006354E-07 3.889686923E-06
 -2.000000000E+00 1.079672948E-01 9.999895096E-01 1.002026320E+00 1.718667918E-03 9.999853969E-01 4.275465017E-06 3.161792847E-06 2.084096167E-07 -5.346617513E-07 3.822834060E-06
 -2.000000000E+00 1.092517003E-01 9.999895096E-01 1.002026558E+00 1.717393636E-03 9.999853373E-01 4.280889243E-06 3.042196568E-06 1.883591807E-07 -5.393238780E-07 3.755722446E-06
 -2.000000000E+00 1.105361059E-01 9.999895096E-01 1.002025127E+00 1.716105966E-03 9.999853373E-01 4.297389751E-06 2.938069201E-06 1.721663665E-07 -5.428129839E-07 3.703812581E-06
 -2.000000000E+00 1.118205115E-01 9.999895096E-01 1.002023458E+00 1.714817248E-03 9.999853373E-01 4.316716513E-06 2.836654630E-06 1.566579328E-07 -5.448000593E-07 3.655014552E-06
 -2.000000000E+00 1.131049171E-01 9.999895096E-01 1.002021432E+00 1.713524573E-03 9.999853373E-01 4.336505754E-06 2.737731393E-06 1.417369049E-07 -5.480488880E-07 3.607987082E-06
 -2.000000000E+00 1.143893301E-01 9.999895096E-01 1.002017736E+00 1.712216879E-03 9.999853373E-01 4.363546395E-06 2.650878969E-06 1.299546568E-07 -5.491193065E-07 3.572189826E-06
 -2.000000000E+00 1.156737357E-01 9.999895096E-01 1.002014041E+00 1.710909186E-03 9.999853373E-01 4.391095899E-06 2.563579528E-06 1.181766223E-07 -5.487161161E-07 3.536425993E-06
 -2.000000000E+00 1.169581413E-01 9.999895096E-01 1.002009869E+00 1.709596952E-03 9.999853373E-01 4.419126071E-06 2.481700903E-06 1.074291092E-07 -5.516873784E-07 3.504128017E-06
 -2.000000000E+00 1.182425469E-01 9.999895096E-01 1.002004623E+00 1.708274824E-03 9.999853373E-01 4.451128916E-06 2.407027068E-06 9.872076845E-08 -5.513858810E-07 3.478438430E-06
 -2.000000000E+00 1.195269525E-01 9.999895096E-01 1.001999378E+00 1.706952229E-03 9.999853373E-01 4.483461453E-06 2.331805035E-06 9.001438173E-08 -5.497458915E-07 3.452640385E-06
 -2.000000000E+00 1.208113581E-01 9.999895096E-01 1.001993656E+00 1.705627190E-03 9.999853373E-01 4.515041383E-06 2.262972657E-06 8.218612635E-08 -5.536624030E-07 3.430100151E-06
 -2.000000000E+00 1.220957637E-01 9.999895096E-01 1.001987457E+00 1.704293420E-03 9.999853373E-01 4.548352535E-06 2.198849870E-06 7.580712946E-08 -5.535183618E-07 3.411504849E-06
 -2.000000000E+00 1.233801767E-01 9.999895096E-01 1.001981139E+00 1.702958951E-03 9.999853373E-01 4.581979283E-06 2.133942644E-06 6.942952524E-08 -5.517330806E-07 3.392675580E-06
 -2.000000000E+00 1.246645823E-01 9.999895096E-01 1.001974821E+00 1.701626927E-03 9.999853373E-01 4.613735655E-06 2.074807071E-06 6.349988269E-08 -5.565094625E-07 3.376021368E-06
 -2.000000000E+00 1.259489805E-01 9.999895096E-01 1.001968026E+00 1.700291992E-03 9.999853373E-01 4.644304681E-06 2.020834017E-06 5.874601072E-08 -5.583319194E-07 3.361942390E-06
 -2.000000000E+00 1.272333860E-01 9.999895096E-01 1.001961350E+00 1.698955428E-03 9.999852777E-01 4.675348464E-06 1.965258434E-06 5.399381209E-08 -5.571251336E-07 3.347300435E-06
 -2.000000000E+00 1.285178065E-01 9.999895096E-01 1.001954675E+00 1.697622007E-03 9.999852777E-01 4.705376796E-06 1.912839934E-06 4.926951647E-08 -5.614425618E-07 3.333743052E-06
 -2.000000000E+00 1.298022121E-01 9.999895096E-01 1.001947761E+00 1.696296036E-03 9.999852777E-01 4.729765806E-06 1.869312769E-06 4.565636047E-08 -5.668664471E-07 3.322367547E-06
 -2.000000000E+00 1.310866177E-01 9.999895096E-01 1.001940727E+00 1.694966690E-03 9.999852777E-01 4.754940164E-06 1.822322247E-06 4.204557769E-08 -5.662427611E-07 3.309653948E-06
 -2.000000000E+00 1.323710233E-01 9.999894500E-01 1.001933813E+00 1.693638973E-03 9.999852777E-01 4.779749815E-06 1.776939598E-06 3.843369001E-08 -5.684267990E-07 3.297561534E-06
 -2.000000000E+00 1.336554289E-01 9.999894500E-01 1.001926899E+00 1.692322898E-03 9.999852777E-01 4.798664577E-06 1.740671337E-06 3.537075344E-08 -5.773821385E-07 3.287353366E-06
 -2.000000000E+00 1.349398345E-01 9.999894500E-01 1.001919746E+00 1.691006706E-03 9.999852777E-01 4.815414286E-06 1.702295322E-06 3.265058268E-08 -5.776516900E-07 3.275180234E-06
 -2.000000000E+00 1.362242401E-01 9.999894500E-01 1.001912713E+00 1.689689932E-03 9.999852777E-01 4.832275863E-06 1.663285275E-06 2.993071391E-08 -5.768872597E-07 3.262745849E-06
 -2.000000000E+00 1.375086457E-01 9.999894500E-01 1.001905560E+00 1.688378048E-03 9.999852777E-01 4.847856871E-06 1.629340886E-06 2.724215697E-08 -5.837505910E-07 3.252220040E-06
 -2.000000000E+00 1.387930512E-01 9.999894500E-01 1.001898289E+00 1.687079202E-03 9.999852777E-01 4.853759492E-06 1.602687348E-06 2.526737042E-08 -5.892436548E-07 3.240857041E-06
 -2.000000000E+00 1.400774568E-01 9.999894500E-01 1.001891017E+00 1.685776166E-03 9.999852777E-01 4.860315130E-06 1.571168809E-06 2.329418969E-08 -5.872832958E-07 3.227389016E-06
 -2.000000000E+00 1.413618624E-01 9.999894500E-01 1.001883745E+00 1.684473478E-03 9.999852777E-01 4.866819836E-06 1.540028052E-06 2.132088639E-08 -5.859016596E-07 3.214084472E-06
 -2.000000000E+00 1.426462680E-01 9.999894500E-01 1.001876473E+00 1.683179638E-03 9.999852777E-01 4.868836641E-06 1.517563533E-06 1.952645512E-08 -5.937374681E-07 3.202963399E-06
 -2.000000000E+00 1.439306736E-01 9.999894500E-01 1.001868963E+00 1.681890688E-03 9.999852777E-01 4.862697097E-06 1.496645154E-06 1.815847028E-08 -5.946881174E-07 3.188750270E-06
 -2.000000000E+00 1.452150792E-01 9.999894500E-01 1.001861453E+00 1.680599060E-03 9.999852777E-01 4.856909072E-06 1.472120971E-06 1.679132211E-08 -5.904355476E-07 3.172910738E-06
 -2.000000000E+00 1.464994997E-01 9.999894500E-01 1.001854062E+00 1.679308363E-03 9.999852777E-01 4.851004633E-06 1.448792659E-06 1.542388084E-08 -5.879090850E-07 3.157610536E-06
 -2.000000000E+00 1.477839053E-01 9.999894500E-01 1.001846552E+00 1.678025583E-03 9.999852777E-01 4.839298072E-06 1.434024284E-06 1.422296769E-08 -5.928741871E-07 3.143772574E-06
 -2.000000000E+00 1.490683109E-01 9.999894500E-01 1.001839042E+00 1.676745946E-03 9.999852777E-01 4.818999969E-06 1.419469640E-06 1.330773358E-08 -5.902322187E-07 3.125888497E-06
 -2.000000000E+00 1.503527164E-01 9.999894500E-01 1.001831532E+00 1.675464329E-03 9.999852777E-01 4.798914233E-06 1.401506438E-06 1.239306169E-08 -5.829563747E-07 3.106406666E-06
 -2.000000000E+00 1.516371220E-01 9.999894500E-01 1.001824021E+00 1.674183062E-03 9.999852777E-01 4.778788934E-06 1.384171469E-06 1.147828677E-08 -5.765347737E-07 3.087219511E-06
 -2.000000000E+00 1.529215276E-01 9.999894500E-01 1.001816511E+00 1.672908082E-03 9.999852777E-01 4.754356723E-06 1.375065040E-06 1.064200550E-08 -5.782046060E-07 3.070031880E-06
 -2.000000000E+00 1.542059332E-01 9.999894500E-01 1.001809120E+00 1.671638340E-03 9.999852777E-01 4.718525815E-06 1.367581149E-06 1.004095473E-08 -5.731715760E-07 3.048073950E-06
 -2.000000000E+00 1.554903388E-01 9.999894500E-01 1.001801610E+00 1.670366619E-03 9.999852777E-01 4.682804047E-06 1.355711674E-06 9.440442206E-09 -5.625366839E-07 3.023978252E-06
 -2.000000000E+00 1.567747444E-01 9.999894500E-01 1.001794219E+00 1.669094898E-03 9.999852777E-01 4.647082733E-06 1.343842200E-06 8.839930565E-09 -5.519017350E-07 2.999882554E-06
 -2.000000000E+00 1.580591500E-01 9.999894500E-01 1.001786828E+00 1.667825738E-03 9.999852777E-01 4.611218174E-06 1.337701065E-06 8.238714599E-09 -5.485838415E-07 2.978579005E-06
 -2.000000000E+00 1.593435556E-01 9.999894500E-01 1.001779675E+00 1.666567172E-03 9.999852777E-01 4.560810339E-06 1.337266099E-06 7.833101279E-09 -5.423553944E-07 2.952954674E-06
 -2.000000000E+00 1.606279612E-01 9.999894500E-01 1.001772523E+00 1.665307907E-03 9.999852777E-01 4.509293376E-06 1.330974555E-06 7.441402605E-09 -5.284816780E-07 2.923854709E-06
 -2.000000000E+00 1.619123667E-01 9.999894500E-01 1.001765370E+00 1.664048759E-03 9.999852777E-01 4.457776868E-06 1.324683012E-06 7.049704376E-09 -5.146079616E-07 2.894754743E-06
 -2.000000000E+00 1.631967723E-01 9.999894500E-01 1.001758337E+00 1.662789960E-03 9.999852777E-01 4.406300832E-06 1.320440333E-06 6.657800977E-09 -5.031753858E-07 2.866699560E-06
 -2.000000000E+00 1.644811779E-01 9.999894500E-01 1.001751304E+00 1.661537564E-03 9.999852777E-01 4.349131814E-06 1.321941795E-06 6.321671631E-09 -4.948388437E-07 2.838697583E-06
 -2.000000000E+00 1.657655984E-01 9.999894500E-01 1.001744509E+00 1.660293667E-03 9.999852777E-01 4.283478575E-06 1.323319566E-06 6.066320335E-09 -4.812083034E-07 2.806432349E-06
 -2.000000000E+00 1.670500040E-01 9.999894500E-01 1.001737714E+00 1.659050351E-03 9.999852777E-01 4.217586138E-06 1.321958280E-06 5.811226611E-09 -4.645885667E-07 2.772677817E-06
 -2.000000000E+00 1.683344096E-01 9.999894500E-01 1.001730919E+00 1.657807035E-03 9.999852777E-01 4.151693702E-06 1.320596994E-06 5.556132887E-09 -4.479688585E-07 2.738923513E-06
 -2.000000000E+00 1.696188152E-01 9.999894500E-01 1.001724005E+00 1.656563021E-03 9.999852777E-01 4.086075478E-06 1.322362664E-06 5.300748729E-09 -4.347617164E-07 2.706869509E-06
 -2.000000000E+00 1.709032208E-01 9.999894500E-01 1.001717448E+00 1.655329484E-03 9.999852777E-01 4.013225862E-06 1.327555538E-06 5.104462186E-09 -4.207206246E-07 2.672942855E-06
 -2.000000000E+00 1.721876264E-01 9.999894500E-01 1.001711011E+00 1.654104097E-03 9.999852777E-01 3.936188023E-06 1.331405770E-06 4.938049525E-09 -4.032560526E-07 2.636265890E-06
 -2.000000000E+00 1.734720320E-01 9.999894500E-01 1.001704574E+00 1.652879873E-03 9.999852777E-01 3.858900527E-06 1.334173021E-06 4.771755435E-09 -3.847781045E-07 2.598922720E-06
 -2.000000000E+00 1.747564375E-01 9.999894500E-01 1.001698017E+00 1.651655650E-03 9.999852777E-01 3.781612804E-06 1.336940386E-06 4.605461790E-09 -3.663001849E-07 2.561579322E-06
 -2.000000000E+00 1.760408431E-01 9.999894500E-01 1.001691580E+00 1.650428865E-03 9.999852777E-01 3.704840992E-06 1.341941925E-06 4.438922563E-09 -3.499130230E-07 2.525610853E-06
 -2.000000000E+00 1.773252487E-01 9.999894500E-01 1.001685262E+00 1.649213722E-03 9.999852777E-01 3.623676321E-06 1.348540309E-06 4.312910917E-09 -3.321013082E-07 2.488264727E-06
 -2.000000000E+00 1.786096543E-01 9.999894500E-01 1.001679063E+00 1.648008474E-03 9.999852777E-01 3.539825229E-06 1.354797860E-06 4.205074511E-09 -3.130859056E-07 2.449414069E-06
 -2.000000000E+00 1.798940599E-01 9.999894500E-01 1.001672864E+00 1.646805787E-03 9.999852777E-01 3.455612386E-06 1.360706051E-06 4.097334028E-09 -2.939739545E-07 2.410207799E-06
 -2.000000000E+00 1.811784655E-01 9.999894500E-01 1.001666665E+00 1.645602984E-03 9.999852777E-01 3.371399771E-06 1.366614242E-06 3.989593989E-09 -2.748620034E-07 2.371001756E-06
 -2.000000000E+00 1.824628711E-01 9.999894500E-01 1.001660466E+00 1.644396689E-03 9.999852777E-01 3.287720801E-06 1.373038231E-06 3.881711397E-09 -2.558926155E-07 2.332320264E-06
 -2.000000000E+00 1.837472916E-01 9.999895096E-01 1.001654387E+00 1.643196680E-03 9.999852777E-01 3.204037739E-06 1.379664923E-06 3.792425485E-09 -2.361456524E-07 2.293747457E-06
 -2.000000000E+00 1.850316972E-01 9.999895096E-01 1.001648426E+00 1.642010640E-03 9.999852777E-01 3.119391067E-06 1.386599592E-06 3.723592323E-09 -2.163582451E-07 2.254857009E-06
 -2.000000000E+00 1.863161027E-01 9.999895096E-01 1.001642346E+00 1.640830538E-03 9.999852777E-01 3.033991561E-06 1.394503784E-06 3.654885727E-09 -1.981432263E-07 2.216075018E-06
 -2.000000000E+00 1.876005083E-01 9.999895096E-01 1.001636386E+00 1.639650553E-03 9.999852777E-01 2.948592282E-06 1.402407975E-06 3.586179131E-09 -1.799282217E-07 2.177293254E-06
 -2.000000000E+00 1.888849139E-01 9.999895096E-01 1.001630425E+00 1.638469286E-03 9.999853373E-01 2.863333748E-06 1.410130722E-06 3.517448999E-09 -1.614189102E-07 2.138490800E-06
 -2.000000000E+00 1.901693195E-01 9.999895096E-01 1.001624465E+00 1.637279987E-03 9.999853373E-01 2.779207534E-06 1.416461487E-06 3.448865415E-09 -1.406910144E-07 2.099558969E-06
 -2.000000000E+00 1.914537251E-01 9.999895096E-01 1.001618624E+00 1.636111178E-03 9.999853373E-01 2.700506457E-06 1.421002025E-06 3.405525861E-09 -1.200514106E-07 2.062457042E-06
 -2.000000000E+00 1.927381307E-01 9.999895096E-01 1.001612782E+00 1.634952612E-03 9.999853373E-01 2.620681698E-06 1.429072086E-06 3.362319090E-09 -1.037632487E-07 2.026558150E-06
 -2.000000000E+00 1.940225363E-01 9.999895096E-01 1.001607060E+00 1.633795910E-03 9.999853373E-01 2.540666401E-06 1.437740480E-06 3.319134967E-09 -8.821280773E-08 1.990862984E-06
 -2.000000000E+00 1.953069419E-01 9.999895096E-01 1.001601219E+00 1.632639207E-03 9.999853373E-01 2.460651103E-06 1.446408760E-06 3.275950844E-09 -7.266235968E-08 1.955168045E-06
 -2.000000000E+00 1.965913475E-01 9.999895096E-01 1.001595497E+00 1.631477149E-03 9.999853373E-01 2.381214244E-06 1.453260438E-06 3.232698109E-09 -5.487213173E-08 1.918853741E-06
 -2.000000000E+00 1.978757530E-01 9.999895096E-01 1.001589656E+00 1.630314393E-03 9.999853373E-01 2.305951057E-06 1.457015060E-06 3.193864506E-09 -3.491355116E-08 1.883080017E-06
 -2.000000000E+00 1.991601586E-01 9.999895096E-01 1.001584053E+00 1.629168051E-03 9.999853373E-01 2.239332844E-06 1.459216833E-06 3.166488849E-09 -1.717832809E-08 1.850858098E-06
 -2.000000000E+00 2.004445642E-01 9.999895692E-01 1.001578450E+00 1.628034748E-03 9.999853969E-01 2.171494089E-06 1.467434458E-06 3.139238869E-09 -6.118350271E-09 1.821033948E-06
 -2.000000000E+00 2.017289847E-01 9.999895692E-01 1.001572847E+00 1.626901329E-03 9.999853969E-01 2.103654651E-06 1.475652084E-06 3.111988667E-09 4.941755893E-09 1.791209343E-06
 -2.000000000E+00 2.030133903E-01 9.999895692E-01 1.001567245E+00 1.625767909E-03 9.999853969E-01 2.035816124E-06 1.483869710E-06 3.084738687E-09 1.600173327E-08 1.761385192E-06
 -2.000000000E+00 2.042977959E-01 9.999895692E-01 1.001561642E+00 1.624627737E-03 9.999853969E-01 1.968618108E-06 1.488929456E-06 3.057422759E-09 3.056564069E-08 1.730302415E-06
 -2.000000000E+00 2.055822015E-01 9.999895692E-01 1.001556039E+00 1.623486402E-03 9.999853969E-01 1.907116712E-06 1.489797228E-06 3.032642804E-09 4.746908644E-08 1.699973268E-06
 -2.000000000E+00 2.068666071E-01 9.999895692E-01 1.001550674E+00 1.622360782E-03 9.999853969E-01 1.858852670E-06 1.488344651E-06 3.014724470E-09 6.085868165E-08 1.675105977E-06
 -2.000000000E+00 2.081510127E-01 9.999895692E-01 1.001545191E+00 1.621249714E-03 9.999854565E-01 1.809417427E-06 1.495054789E-06 2.996954018E-09 6.580507517E-08 1.653734557E-06
 -2.000000000E+00 2.094354182E-01 9.999895692E-01 1.001539826E+00 1.620138646E-03 9.999854565E-01 1.759982297E-06 1.501764928E-06 2.979183567E-09 7.075147579E-08 1.632363137E-06