variables="x/c","Cp"
zone, t="LES results, widespan modified top wall"
  -2.02579405617243       4.683451244602564E-004
  -2.02504431743957       2.410879211400818E-003
  -2.02429457870671       2.951598666323107E-003
  -2.02354483997386       3.184037380155047E-003
  -2.02279510124101       3.165810158423099E-003
  -2.02204536250815       3.125645789059383E-003
  -2.02129562377530       2.981049150108106E-003
  -2.02054588504244       2.877907804799129E-003
  -2.01979614630959       2.728548389518970E-003
  -2.01904640757673       2.615883769307991E-003
  -2.01829666884388       2.484497510590877E-003
  -2.01754693011102       2.381306992704779E-003
  -2.01679719137817       2.274693874038114E-003
  -2.01604745264532       2.186405123216772E-003
  -2.01529771391246       2.103463267899563E-003
  -2.01454797517961       2.029710852702315E-003
  -2.01379823644675       1.966240233652882E-003
  -2.01304849771390       1.905302965532484E-003
  -2.01229875898104       1.857054587328654E-003
  -2.01154902024819       1.806751570265774E-003
  -2.01079928151534       1.769490639391691E-003
  -2.01004954278248       1.727745806556768E-003
  -2.00929980404963       1.698683823114777E-003
  -2.00855006531677       1.664595275352454E-003
  -2.00780032658392       1.642272792401478E-003
  -2.00705058785106       1.615323546944047E-003
  -2.00630084911821       1.598904117972033E-003
  -2.00555111038536       1.578009778802070E-003
  -2.00480137165250       1.566301886635202E-003
  -2.00405163291965       1.549848763948702E-003
  -2.00330189418679       1.541803232329997E-003
  -2.00255215545394       1.528253257587764E-003
  -2.00180241672108       1.523281812354504E-003
  -2.00105267798823       1.511719850966209E-003
  -2.00030293925538       1.509619240813720E-003
  -1.99955320052252       1.499712692898391E-003
  -1.99880346178967       1.500040639279554E-003
  -1.99805372305681       1.492048111573218E-003
  -1.99730398432396       1.493852815670493E-003
  -1.99655424559110       1.488235571778240E-003
  -1.99580450685825       1.490479274557366E-003
  -1.99505476812539       1.487974133884684E-003
  -1.99430502939254       1.488535230831367E-003
  -1.99355529065969       1.493645134509336E-003
  -1.99280555192683       1.485509561893750E-003
  -1.99205581319398       1.501745181031744E-003
  -1.99130607446112       1.487468923144774E-003
  -1.99055633572827       1.505006304780565E-003
  -1.98980659699541       1.482884346892810E-003
  -1.98905685826256       1.500690272226990E-003
  -1.98830711952971       1.492516434264956E-003
  -1.98755738079685       1.505850723693136E-003
  -1.98680764206400       1.510063352361257E-003
  -1.98605790333114       1.517509060633415E-003
  -1.98530816459829       1.525770524635206E-003
  -1.98455842586543       1.529594504301457E-003
  -1.98380868713258       1.540269085609225E-003
  -1.98305894839973       1.542404461374325E-003
  -1.98230920966687       1.553063567061308E-003
  -1.98155947093402       1.554585126251062E-003
  -1.98080973220116       1.563734484566481E-003
  -1.98005999346831       1.565413829562878E-003
  -1.97931025473545       1.572190457532763E-003
  -1.97856051600260       1.574444487495441E-003
  -1.97781077726975       1.579382325744838E-003
  -1.97706103853689       1.583181683506574E-003
  -1.97631129980404       1.587492747656682E-003
  -1.97556156107118       1.593015904299832E-003
  -1.97481182233833       1.597397064090344E-003
  -1.97406208360547       1.604130285270955E-003
  -1.97331234487262       1.609328746510208E-003
  -1.97256260613976       1.617068003323396E-003
  -1.97181286740691       1.623932596994670E-003
  -1.97106312867406       1.631688619219140E-003
  -1.97031338994120       1.639751186521820E-003
  -1.96956365120835       1.646014230960446E-003
  -1.96881391247549       1.654917367899244E-003
  -1.96806417374264       1.659278334065206E-003
  -1.96731443500978       1.669384015556829E-003
  -1.96656469627693       1.672412625208785E-003
  -1.96581495754408       1.683581550437907E-003
  -1.96506521881122       1.685929366668226E-003
  -1.96431548007837       1.696995776501175E-003
  -1.96356574134551       1.699513762387638E-003
  -1.96281600261266       1.709467183563795E-003
  -1.96206626387980       1.713278680814944E-003
  -1.96131652514695       1.719802812316650E-003
  -1.96056678641410       1.729491806989891E-003
  -1.95981704768124       1.725081767167679E-003
  -1.95906730894839       1.744183469098992E-003
  -1.95831757021553       1.730931906029908E-003
  -1.95756783148268       1.749916751081492E-003
  -1.95681809274982       1.726576502081300E-003
  -1.95606835401697       1.745418716025959E-003
  -1.95531861528411       1.736398380058901E-003
  -1.95456887655126       1.750103586206641E-003
  -1.95381913781841       1.754365586070783E-003
  -1.95306939908555       1.762008861794228E-003
  -1.95231966035270       1.770033598380571E-003
  -1.95156992161984       1.772679549016942E-003
  -1.95082018288699       1.781859973037924E-003
  -1.95007044415413       1.781690372149036E-003
  -1.94932070542128       1.790468958673408E-003
  -1.94857096668843       1.789776042704360E-003
  -1.94782122795557       1.797463130337462E-003
  -1.94707148922272       1.797855127283476E-003
  -1.94632175048986       1.804300442764805E-003
  -1.94557201175701       1.806324314101992E-003
  -1.94482227302415       1.811112560390348E-003
  -1.94407253429130       1.814288128576535E-003
  -1.94332279555845       1.817642834867072E-003
  -1.94257305682559       1.822000138207435E-003
  -1.94182331809274       1.825104490738027E-003
  -1.94107357935988       1.830428611526713E-003
  -1.94032384062703       1.833663426653586E-003
  -1.93957410189417       1.838822724953281E-003
  -1.93882436316132       1.842370557447736E-003
  -1.93807462442847       1.846401264593566E-003
  -1.93732488569561       1.850577955786469E-003
  -1.93657514696276       1.852868609852897E-003
  -1.93582540822990       1.857874986010976E-003
  -1.93507566949705       1.858040926028259E-003
  -1.93432593076419       1.863953919611915E-003
  -1.93357619203134       1.862459277202077E-003
  -1.93282645329849       1.869606006899005E-003
  -1.93207671456563       1.868097284374314E-003
  -1.93132697583278       1.876275457224352E-003
  -1.93057723709992       1.876133683587077E-003
  -1.92982749836707       1.884000156526788E-003
  -1.92907775963421       1.885606800744454E-003
  -1.92832802090136       1.890014604066792E-003
  -1.92757828216851       1.897682102414144E-003
  -1.92682854343565       1.890601066856234E-003
  -1.92607880470280       1.907899782249700E-003
  -1.92532906596994       1.891349711513612E-003
  -1.92457932723709       1.907994898942000E-003
  -1.92382958850423       1.880215427774167E-003
  -1.92307984977138       1.896180297777938E-003
  -1.92233011103852       1.883038637573442E-003
  -1.92158037230567       1.893467472413590E-003
  -1.92083063357282       1.894255150358681E-003
  -1.92008089483996       1.899186745202285E-003
  -1.91933115610711       1.905281287850613E-003
  -1.91858141737425       1.906343823532275E-003
  -1.91783167864140       1.914457615703746E-003
  -1.91708193990854       1.912939913029099E-003
  -1.91633220117569       1.920544593425610E-003
  -1.91558246244284       1.917859697209145E-003
  -1.91483272370998       1.923315096075128E-003
  -1.91408298497713       1.920665105736851E-003
  -1.91333324624427       1.924042070444720E-003
  -1.91258350751142       1.922777098251060E-003
  -1.91183376877856       1.924505300876511E-003
  -1.91108403004571       1.924451262813597E-003
  -1.91033429131286       1.924244887141490E-003
  -1.90958455258000       1.924354523707982E-003
  -1.90883481384715       1.922458804859417E-003
  -1.90808507511429       1.922289452260805E-003
  -1.90733533638144       1.919611149103772E-003
  -1.90658559764858       1.918670743084050E-003
  -1.90583585891573       1.916105595678452E-003
  -1.90508612018288       1.914349321574526E-003
  -1.90433638145002       1.913216551430174E-003
  -1.90358664271717       1.910887925071769E-003
  -1.90283690398431       1.912016849936470E-003
  -1.90208716525146       1.908862233257480E-003
  -1.90133742651860       1.912019299865619E-003
  -1.90058768778575       1.907915676246929E-003
  -1.89983794905289       1.912611126808627E-003
  -1.89908821032004       1.908356104829422E-003
  -1.89833847158719       1.913653668350612E-003
  -1.89758873285433       1.910123162174315E-003
  -1.89683899412148       1.914350449228052E-003
  -1.89608925538862       1.911935827880739E-003
  -1.89533951665577       1.912102465762011E-003
  -1.89458977792291       1.915495938509259E-003
  -1.89384003919006       1.904067580138502E-003
  -1.89309030045721       1.917649054994363E-003
  -1.89234056172435       1.897355559821178E-003
  -1.89159082299150       1.910407313343576E-003
  -1.89084108425864       1.879776518443065E-003
  -1.89009134552579       1.892823990257142E-003
  -1.88934160679293       1.876853675608636E-003
  -1.88859186806008       1.884289887921220E-003
  -1.88784212932723       1.881806012171694E-003
  -1.88709239059437       1.882912809714199E-003
  -1.88634265186152       1.884750087377540E-003
  -1.88559291312866       1.881392892344457E-003
  -1.88484317439581       1.885171810589447E-003
  -1.88409343566295       1.879567854734531E-003
  -1.88334369693010       1.883602578911514E-003
  -1.88259395819725       1.878270376143298E-003
  -1.88184421946439       1.881950933069198E-003
  -1.88109448073154       1.878029098589806E-003
  -1.88034474199868       1.880281099087000E-003
  -1.87959500326583       1.878012065925638E-003
  -1.87884526453297       1.878785814701800E-003
  -1.87809552580012       1.877862477184244E-003
  -1.87734578706726       1.876907609332789E-003
  -1.87659604833441       1.876420927771072E-003
  -1.87584630960156       1.873932887286322E-003
  -1.87509657086870       1.873114612038762E-003
  -1.87434683213585       1.869787954511537E-003
  -1.87359709340299       1.868265015070314E-003
  -1.87284735467014       1.865121435784544E-003
  -1.87209761593728       1.862737035263073E-003
  -1.87134787720443       1.860884959459241E-003
  -1.87059813847158       1.857643117042506E-003
  -1.86984839973872       1.857701730934024E-003
  -1.86909866100587       1.853312926436423E-003
  -1.86834892227301       1.855034488595919E-003
  -1.86759918354016       1.849152061650372E-003
  -1.86684944480730       1.851716335199427E-003
  -1.86609970607445       1.844946919771217E-003
  -1.86534996734160       1.847470174287657E-003
  -1.86460022860874       1.841067394403594E-003
  -1.86385048987589       1.842673984575604E-003
  -1.86310075114303       1.838032128831379E-003
  -1.86235101241018       1.836486091000288E-003
  -1.86160127367732       1.838868725179132E-003
  -1.86085153494447       1.827152086852912E-003
  -1.86010179621162       1.841401902558104E-003
  -1.85935205747876       1.822296712994386E-003
  -1.85860231874591       1.837486505174013E-003
  -1.85785258001305       1.808462684294021E-003
  -1.85710284128020       1.823752851493054E-003
  -1.85635310254734       1.809444122891079E-003
  -1.85560336381449       1.818351601245993E-003
  -1.85485362508163       1.816659357811723E-003
  -1.85410388634878       1.818061154201799E-003
  -1.85335414761593       1.819820753490297E-003
  -1.85260440888307       1.816090665296421E-003
  -1.85185467015022       1.819424807703029E-003
  -1.85110493141736       1.813132477512802E-003
  -1.85035519268451       1.816378793217943E-003
  -1.84960545395165       1.809795142260206E-003
  -1.84885571521880       1.812019009217458E-003
  -1.84810597648595       1.806450004671056E-003
  -1.84735623775309       1.807132654141341E-003
  -1.84660649902024       1.803183987370005E-003
  -1.84585676028738       1.802458863031652E-003
  -1.84510702155453       1.800442908672650E-003
  -1.84435728282167       1.798990120605026E-003
  -1.84360754408882       1.798506196504234E-003
  -1.84285780535596       1.796497661810114E-003
  -1.84210806662311       1.796546956023270E-003
  -1.84135832789026       1.794339546945522E-003
  -1.84060858915740       1.794143471234299E-003
  -1.83985885042455       1.792331192929097E-003
  -1.83910911169169       1.790896132236596E-003
  -1.83835937295884       1.789259268281107E-003
  -1.83760963422599       1.785491991324050E-003
  -1.83685989549313       1.784409627347827E-003
  -1.83611015676028       1.778571220412139E-003
  -1.83536041802742       1.778917179584560E-003
  -1.83461067929457       1.772092181839823E-003
  -1.83386094056171       1.774277519683842E-003
  -1.83311120182886       1.767634815252883E-003
  -1.83236146309601       1.770607696705006E-003
  -1.83161172436315       1.764804610471237E-003
  -1.83086198563030       1.766919403478617E-003
  -1.83011224689744       1.762428287066519E-003
  -1.82936250816459       1.760389381599836E-003
  -1.82861276943173       1.761439725256330E-003
  -1.82786303069888       1.747319585798656E-003
  -1.82711329196602       1.758294637910218E-003
  -1.82636355323317       1.735307545858155E-003
  -1.82561381450032       1.746841233574159E-003
  -1.82486407576746       1.713356337873506E-003
  -1.82411433703461       1.724537815106508E-003
  -1.82336459830175       1.706020245806350E-003
  -1.82261485956890       1.711339487941998E-003
  -1.82186512083604       1.706600614226339E-003
  -1.82111538210319       1.705720816880251E-003
  -1.82036564337034       1.705846024013801E-003
  -1.81961590463748       1.701011156973741E-003
  -1.81886616590463       1.703757302040642E-003
  -1.81811642717177       1.697080935647576E-003
  -1.81736668843892       1.700160254269889E-003
  -1.81661694970606       1.693398575186577E-003
  -1.81586721097321       1.695552927083454E-003
  -1.81511747224036       1.689779653757383E-003
  -1.81436773350750       1.690180924951434E-003
  -1.81361799477465       1.685728360278915E-003
  -1.81286825604179       1.684184537853461E-003
  -1.81211851730894       1.680883096288887E-003
  -1.81136877857608       1.677809753086734E-003
  -1.81061903984323       1.675465977135637E-003
  -1.80986930111037       1.671397800784291E-003
  -1.80911956237752       1.669281671956568E-003
  -1.80836982364467       1.664960192959697E-003
  -1.80762008491181       1.662815601566336E-003
  -1.80687034617896       1.659310835511185E-003
  -1.80612060744610       1.656562901142244E-003
  -1.80537086871325       1.654088648295193E-003
  -1.80462112998039       1.649900290634498E-003
  -1.80387139124754       1.648767861572864E-003
  -1.80312165251469       1.642948510172104E-003
  -1.80237191378183       1.643188312883126E-003
  -1.80162217504898       1.635739712435580E-003
  -1.80087243631612       1.636778556157736E-003
  -1.80012269758327       1.628445768586672E-003
  -1.79937295885041       1.629619406573468E-003
  -1.79862322011756       1.622048484684057E-003
  -1.79787348138471       1.622767307840611E-003
  -1.79712374265185       1.617560924449535E-003
  -1.79637400391900       1.615830263390627E-003
  -1.79562426518614       1.618206671061273E-003
  -1.79487452645329       1.605808500371175E-003
  -1.79412478772043       1.618723065011096E-003
  -1.79337504898758       1.597241003725713E-003
  -1.79262531025473       1.609680421554849E-003
  -1.79187557152187       1.577783930239995E-003
  -1.79112583278902       1.590382671778911E-003
  -1.79037609405616       1.573635623586256E-003
  -1.78962635532331       1.580469706330412E-003
  -1.78887661659045       1.576966799610169E-003
  -1.78812687785760       1.576785383750057E-003
  -1.78737713912474       1.577022509935410E-003
  -1.78662740039189       1.571785228637878E-003
  -1.78587766165904       1.573619388106628E-003
  -1.78512792292618       1.565796780544914E-003
  -1.78437818419333       1.567460620965910E-003
  -1.78362844546047       1.559326093736324E-003
  -1.78287870672762       1.560244262366339E-003
  -1.78212896799476       1.553710214285964E-003
  -1.78137922926191       1.553779260898835E-003
  -1.78062949052906       1.549360955399592E-003
  -1.77987975179620       1.547911025578941E-003
  -1.77913001306335       1.544614343274020E-003
  -1.77838027433049       1.541444123498436E-003
  -1.77763053559764       1.539111557380401E-003
  -1.77688079686478       1.535261286633727E-003
  -1.77613105813193       1.533444004930828E-003
  -1.77538131939908       1.529421187407287E-003
  -1.77463158066622       1.527557216074449E-003
  -1.77388184193337       1.524340776848376E-003
  -1.77313210320051       1.521883254662626E-003
  -1.77238236446766       1.519674997152442E-003
  -1.77163262573480       1.515754324898921E-003
  -1.77088288700195       1.514812173164515E-003
  -1.77013314826910       1.509151078393778E-003
  -1.76938340953624       1.509429520352157E-003
  -1.76863367080339       1.502060094860091E-003
  -1.76788393207053       1.503034239358491E-003
  -1.76713419333768       1.494495511855653E-003
  -1.76638445460482       1.495085895109049E-003
  -1.76563471587197       1.486682871587597E-003
  -1.76488497713911       1.486120770177734E-003
  -1.76413523840626       1.479110841540176E-003
  -1.76338549967341       1.474928010547494E-003
  -1.76263576094055       1.474518529454016E-003
  -1.76188602220770       1.459704849526844E-003
  -1.76113628347484       1.470677267501052E-003
  -1.76038654474199       1.448418485616720E-003
  -1.75963680600913       1.460713844725347E-003
  -1.75888706727628       1.428829841176871E-003
  -1.75813732854343       1.441139667557323E-003
  -1.75738758981057       1.424221105228440E-003
  -1.75663785107772       1.430828344939350E-003
  -1.75588811234486       1.427416054800012E-003
  -1.75513837361201       1.427629098094130E-003
  -1.75438863487915       1.428664358682496E-003
  -1.75363889614630       1.424631339030924E-003
  -1.75288915741345       1.428030985328732E-003
  -1.75213941868059       1.422098397441118E-003
  -1.75138967994774       1.425804516719253E-003
  -1.75063994121488       1.419692721449372E-003
  -1.74989020248203       1.422232851444605E-003
  -1.74914046374917       1.416719978530878E-003
  -1.74839072501632       1.417017641869300E-003
  -1.74764098628347       1.412245605947326E-003
  -1.74689124755061       1.410068747964565E-003
  -1.74614150881776       1.405802892651131E-003
  -1.74539177008490       1.401306464865470E-003
  -1.74464203135205       1.397248501655568E-003
  -1.74389229261919       1.391479447243604E-003
  -1.74314255388634       1.387976829558823E-003
  -1.74239281515348       1.382665183746745E-003
  -1.74164307642063       1.379758968522715E-003
  -1.74089333768778       1.375601152897587E-003
  -1.74014359895492       1.372224376550157E-003
  -1.73939386022207       1.369122127581335E-003
  -1.73864412148921       1.364199312514635E-003
  -1.73789438275636       1.362127128312629E-003
  -1.73714464402350       1.355329411967254E-003
  -1.73639490529065       1.354722396462726E-003
  -1.73564516655780       1.346774385435623E-003
  -1.73489542782494       1.347538585250163E-003
  -1.73414568909209       1.339102624298149E-003
  -1.73339595035923       1.340006927286197E-003
  -1.73264621162638       1.332057909864126E-003
  -1.73189647289352       1.332251929175854E-003
  -1.73114673416067       1.326393422496075E-003
  -1.73039699542782       1.323725781499085E-003
  -1.72964725669496       1.325025106102551E-003
  -1.72889751796211       1.311665457270905E-003
  -1.72814777922925       1.323721436263803E-003
  -1.72739804049640       1.301869112713127E-003
  -1.72664830176354       1.314454513545726E-003
  -1.72589856303069       1.281926819474144E-003
  -1.72514882429784       1.293824628456619E-003
  -1.72439908556498       1.275987896276476E-003
  -1.72364934683213       1.281687040077806E-003
  -1.72289960809927       1.277038329638991E-003
  -1.72214986936642       1.275898112762519E-003
  -1.72140013063356       1.275421067536975E-003
  -1.72065039190071       1.269622492428013E-003
  -1.71990065316785       1.271095383326148E-003
  -1.71915091443500       1.263100809634210E-003
  -1.71840117570215       1.264884609608607E-003
  -1.71765143696929       1.256919337744300E-003
  -1.71690169823644       1.257936399934323E-003
  -1.71615195950358       1.251236409505196E-003
  -1.71540222077073       1.250844394196093E-003
  -1.71465248203788       1.245781631498133E-003
  -1.71390274330502       1.243894177682669E-003
  -1.71315300457217       1.240600561680516E-003
  -1.71240326583931       1.237698090239547E-003
  -1.71165352710646       1.235591787196455E-003
  -1.71090378837360       1.231774077203873E-003
  -1.71015404964075       1.229932832425007E-003
  -1.70940431090789       1.225884025024548E-003
  -1.70865457217504       1.223952328510691E-003
  -1.70790483344219       1.220556931214034E-003
  -1.70715509470933       1.217807681541671E-003
  -1.70640535597648       1.215401050180809E-003
  -1.70565561724362       1.211466509265513E-003
  -1.70490587851077       1.211056975880531E-003
  -1.70415613977791       1.206411895160464E-003
  -1.70340640104506       1.208306925581937E-003
  -1.70265666231221       1.202696258495450E-003
  -1.70190692357935       1.205809552562442E-003
  -1.70115718484650       1.199394403261777E-003
  -1.70040744611364       1.202140013600861E-003
  -1.69965770738079       1.195447442836617E-003
  -1.69890796864793       1.196585624985147E-003
  -1.69815822991508       1.191382773413352E-003
  -1.69740849118222       1.189391039213561E-003
  -1.69665875244937       1.191471070627337E-003
  -1.69590901371652       1.178718627858899E-003
  -1.69515927498366       1.191817481061008E-003
  -1.69440953625081       1.170404036932027E-003
  -1.69365979751795       1.183818524208568E-003
  -1.69291005878510       1.151467214399737E-003
  -1.69216032005224       1.164490748184477E-003
  -1.69141058131939       1.147343826812808E-003
  -1.69066084258654       1.154075423892564E-003
  -1.68991110385368       1.149970405589506E-003
  -1.68916136512083       1.149032909131264E-003
  -1.68841162638797       1.148424545993620E-003
  -1.68766188765512       1.142244691476612E-003
  -1.68691214892226       1.143376833478982E-003
  -1.68616241018941       1.134992455043004E-003
  -1.68541267145656       1.136906732357445E-003
  -1.68466293272370       1.129370798946816E-003
  -1.68391319399085       1.131284323441228E-003
  -1.68316345525799       1.125432261628312E-003
  -1.68241371652514       1.125970222437544E-003
  -1.68166397779228       1.121679323778934E-003
  -1.68091423905943       1.120461825232510E-003
  -1.68016450032658       1.117476211764945E-003
  -1.67941476159372       1.114612097330436E-003
  -1.67866502286087       1.112470053943326E-003
  -1.67791528412801       1.108697505247669E-003
  -1.67716554539516       1.106920199789307E-003
  -1.67641580666230       1.102698569233062E-003
  -1.67566606792945       1.100256244712660E-003
  -1.67491632919659       1.095977319875985E-003
  -1.67416659046374       1.092159763849132E-003
  -1.67341685173089       1.088425438222629E-003
  -1.67266711299803       1.082779379801835E-003
  -1.67191737426518       1.080139593057083E-003
  -1.67116763553232       1.072802746548973E-003
  -1.67041789679947       1.071706484068180E-003
  -1.66966815806661       1.063046218963137E-003
  -1.66891841933376       1.063372268506057E-003
  -1.66816868060091       1.054631604002765E-003
  -1.66741894186805       1.055808871086583E-003
  -1.66666920313520       1.048250774804415E-003
  -1.66591946440234       1.048993274888055E-003
  -1.66516972566949       1.043326250127485E-003
  -1.66441998693663       1.040580950983916E-003
  -1.66367024820378       1.041626213837965E-003
  -1.66292050947093       1.027730575220431E-003
  -1.66217077073807       1.039668732727428E-003
  -1.66142103200522       1.017263741109886E-003
  -1.66067129327236       1.029623522752487E-003
  -1.65992155453951       9.967903582985824E-004
  -1.65917181580665       1.008848294370423E-003
  -1.65842207707380       9.909690283693704E-004
  -1.65767233834095       9.968463410725545E-004
  -1.65692259960809       9.923993934402018E-004
  -1.65617286087524       9.915903925739042E-004
  -1.65542312214238       9.916410974808441E-004
  -1.65467338340953       9.866277588477244E-004
  -1.65392364467667       9.893569765884178E-004
  -1.65317390594382       9.827447802202014E-004
  -1.65242416721096       9.860340479228567E-004
  -1.65167442847811       9.793327121254689E-004
  -1.65092468974526       9.814555580245352E-004
  -1.65017495101240       9.755475198991446E-004
  -1.64942521227955       9.759177323820365E-004
  -1.64867547354669       9.714595318177641E-004
  -1.64792573481384       9.698331470353592E-004
  -1.64717599608098       9.661668750160499E-004
  -1.64642625734813       9.623821291215859E-004
  -1.64567651861528       9.591080163184882E-004
  -1.64492677988242       9.539100852107294E-004
  -1.64417704114957       9.504897784617936E-004
  -1.64342730241671       9.445631685478515E-004
  -1.64267756368386       9.405009775642623E-004
  -1.64192782495100       9.347739845289025E-004
  -1.64117808621815       9.296798459290654E-004
  -1.64042834748530       9.247950399915437E-004
  -1.63967860875244       9.181341946495889E-004
  -1.63892887001959       9.145681841182805E-004
  -1.63817913128673       9.064413288850657E-004
  -1.63742939255388       9.045796013795735E-004
  -1.63667965382102       8.951956295355499E-004
  -1.63592991508817       8.945223801237743E-004
  -1.63518017635532       8.845192607687122E-004
  -1.63443043762246       8.840810569843425E-004
  -1.63368069888961       8.748824069648717E-004
  -1.63293096015675       8.740337063439794E-004
  -1.63218122142390       8.670140282829306E-004
  -1.63143148269104       8.630231976392009E-004
  -1.63068174395819       8.628611249728022E-004
  -1.62993200522533       8.480707990310419E-004
  -1.62918226649248       8.594313011034414E-004
  -1.62843252775963       8.369883585102044E-004
  -1.62768278902677       8.498382567667659E-004
  -1.62693305029392       8.168791968854449E-004
  -1.62618331156106       8.292134169529674E-004
  -1.62543357282821       8.116367442800864E-004
  -1.62468383409535       8.182463073103107E-004
  -1.62393409536250       8.146404202769019E-004
  -1.62318435662965       8.147092596555438E-004
  -1.62243461789679       8.154061214460383E-004
  -1.62168487916394       8.105681575942824E-004
  -1.62093514043108       8.130652387361436E-004
  -1.62018540169823       8.059274378968694E-004
  -1.61943566296537       8.086581053889929E-004
  -1.61868592423252       8.013670428130836E-004
  -1.61793618549967       8.029947067500486E-004
  -1.61718644676681       7.964582064978741E-004
  -1.61643670803396       7.959969331006177E-004
  -1.61568696930110       7.904686823101413E-004
  -1.61493723056825       7.878282260564972E-004
  -1.61418749183539       7.833917597732664E-004
  -1.61343775310254       7.790335498913946E-004
  -1.61268801436969       7.752564428642471E-004
  -1.61193827563683       7.696785852884246E-004
  -1.61118853690398       7.661035278383465E-004
  -1.61043879817112       7.602634849002142E-004
  -1.60968905943827       7.565601567671719E-004
  -1.60893932070541       7.514056037161153E-004
  -1.60818958197256       7.469933036130526E-004
  -1.60743984323970       7.430079622450235E-004
  -1.60669010450685       7.375155832045620E-004
  -1.60594036577400       7.355103411210705E-004
  -1.60519062704114       7.291594578573423E-004
  -1.60444088830829       7.294057158713229E-004
  -1.60369114957543       7.222136476192630E-004
  -1.60294141084258       7.240335146319054E-004
  -1.60219167210972       7.165939312825386E-004
  -1.60144193337687       7.188546116809745E-004
  -1.60069219464402       7.120090077750162E-004
  -1.59994245591116       7.133303082440533E-004
  -1.59919271717831       7.082890433718346E-004
  -1.59844297844545       7.062737875651591E-004
  -1.59769323971260       7.081939870534625E-004
  -1.59694350097974       6.951422129919392E-004
  -1.59619376224689       7.080887013399816E-004
  -1.59544402351404       6.863571642812260E-004
  -1.59469428478118       6.993400293087148E-004
  -1.59394454604833       6.666756520612437E-004
  -1.59319480731547       6.790291418701243E-004
  -1.59244506858262       6.611898775821244E-004
  -1.59169532984976       6.672191865453313E-004
  -1.59094559111691       6.625594597409189E-004
  -1.59019585238405       6.610875455947961E-004
  -1.58944611365120       6.599294989584336E-004
  -1.58869637491835       6.532645599133246E-004
  -1.58794663618549       6.541360244360915E-004
  -1.58719689745264       6.456103754493013E-004
  -1.58644715871978       6.471433880106402E-004
  -1.58569741998693       6.388012994573699E-004
  -1.58494768125408       6.395166263217787E-004
  -1.58419794252122       6.323058282964310E-004
  -1.58344820378837       6.314693960174366E-004
  -1.58269846505551       6.258884691412446E-004
  -1.58194872632266       6.233931526322677E-004
  -1.58119898758980       6.191932030885637E-004
  -1.58044924885695       6.151939419885010E-004
  -1.57969951012409       6.119786957414773E-004
  -1.57894977139124       6.071130668638957E-004
  -1.57820003265839       6.042030509911810E-004
  -1.57745029392553       5.987865173473493E-004
  -1.57670055519268       5.951514199020734E-004
  -1.57595081645982       5.897962551459911E-004
  -1.57520107772697       5.850551109132239E-004
  -1.57445133899411       5.806260193086387E-004
  -1.57370160026126       5.745740388585218E-004
  -1.57295186152841       5.718735385906725E-004
  -1.57220212279555       5.647469447200847E-004
  -1.57145238406270       5.641136276768320E-004
  -1.57070264532984       5.559799772791861E-004
  -1.56995290659699       5.568284040746717E-004
  -1.56920316786413       5.485215335498949E-004