# SSG/LRR-RSM-w2012 model
VARIABLES = "x","cf"
T="Surface skin friction coefficient on finest 545 x 385 grid"
ZONE T="CFL3D"
 0.000000000E+00 1.187981106E-02
 1.000000047E-03 1.512902509E-02
 2.001968445E-03 5.928074475E-03
 3.005924402E-03 5.305210594E-03
 4.011887591E-03 5.238808226E-03
 5.019877572E-03 5.409738515E-03
 6.029913668E-03 5.626215134E-03
 7.042016368E-03 5.774150137E-03
 8.056204766E-03 5.831312854E-03
 9.072500281E-03 5.820242688E-03
 1.009092201E-02 5.770992488E-03
 1.111149136E-02 5.704384763E-03
 1.213422790E-02 5.631414708E-03
 1.315915212E-02 5.557182245E-03
 1.418628637E-02 5.484117195E-03
 1.521565020E-02 5.413532257E-03
 1.624726504E-02 5.346158985E-03
 1.728115417E-02 5.282329395E-03
 1.831733435E-02 5.222100299E-03
 1.935583353E-02 5.165359005E-03
 2.039666846E-02 5.111906677E-03
 2.143986151E-02 5.061509088E-03
 2.248543687E-02 5.013926886E-03
 2.353341691E-02 4.968930036E-03
 2.458382212E-02 4.926306196E-03
 2.563667670E-02 4.885859322E-03
 2.669200115E-02 4.847412929E-03
 2.774982154E-02 4.810805898E-03
 2.881015837E-02 4.775894340E-03
 2.987303585E-02 4.742546938E-03
 3.093848005E-02 4.710644484E-03
 3.200650960E-02 4.680079408E-03
 3.307715058E-02 4.650753457E-03
 3.415042907E-02 4.622579552E-03
 3.522636741E-02 4.595478531E-03
 3.630498797E-02 4.569378681E-03
 3.738632053E-02 4.544215742E-03
 3.847038746E-02 4.519930575E-03
 3.955721110E-02 4.496469162E-03
 4.064681754E-02 4.473781679E-03
 4.173923656E-02 4.451822024E-03
 4.283448681E-02 4.430546891E-03
 4.393260181E-02 4.409917165E-03
 4.503360018E-02 4.389896523E-03
 4.613751546E-02 4.370452836E-03
 4.724436626E-02 4.351555370E-03
 4.835418612E-02 4.333176184E-03
 4.946699739E-02 4.315290134E-03
 5.058282986E-02 4.297872540E-03
 5.170170963E-02 4.280901514E-03
 5.282366648E-02 4.264354706E-03
 5.394872278E-02 4.248213489E-03
 5.507691577E-02 4.232458770E-03
 5.620826408E-02 4.217072856E-03
 5.734280124E-02 4.202039912E-03
 5.848055333E-02 4.187344573E-03
 5.962155387E-02 4.172972869E-03
 6.076582894E-02 4.158910364E-03
 6.191340834E-02 4.145145416E-03
 6.306432188E-02 4.131665919E-03
 6.421860307E-02 4.118460231E-03
 6.537627429E-02 4.105518106E-03
 6.653737277E-02 4.092829302E-03
 6.770192832E-02 4.080384038E-03
 6.886997819E-02 4.068173934E-03
 7.004153728E-02 4.056189675E-03
 7.121665031E-02 4.044423811E-03
 7.239534706E-02 4.032868426E-03
 7.357765734E-02 4.021516070E-03
 7.476361841E-02 4.010359757E-03
 7.595326006E-02 3.999393433E-03
 7.714661211E-02 3.988610581E-03
 7.834371924E-02 3.978005145E-03
 7.954459637E-02 3.967571072E-03
 8.074929565E-02 3.957303707E-03
 8.195784688E-02 3.947196994E-03
 8.317027986E-02 3.937245812E-03
 8.438663185E-02 3.927446436E-03
 8.560694009E-02 3.917793278E-03
 8.683124185E-02 3.908282146E-03
 8.805956692E-02 3.898908850E-03
 8.929195255E-02 3.889669431E-03
 9.052844346E-02 3.880560165E-03
 9.176907688E-02 3.871577093E-03
 9.301388264E-02 3.862716723E-03
 9.426289797E-02 3.853975795E-03
 9.551616758E-02 3.845351050E-03
 9.677372128E-02 3.836839227E-03
 9.803561121E-02 3.828437533E-03
 9.930186719E-02 3.820142709E-03
 1.005725339E-01 3.811952192E-03
 1.018476486E-01 3.803863190E-03
 1.031272486E-01 3.795873141E-03
 1.044113860E-01 3.787979484E-03
 1.057000905E-01 3.780179657E-03
 1.069934070E-01 3.772471333E-03
 1.082913801E-01 3.764852416E-03
 1.095940545E-01 3.757320344E-03
 1.109014750E-01 3.749873489E-03
 1.122136712E-01 3.742509522E-03
 1.135307029E-01 3.735226346E-03
 1.148526073E-01 3.728022100E-03
 1.161794290E-01 3.720895154E-03
 1.175112203E-01 3.713843646E-03
 1.188480183E-01 3.706865478E-03
 1.201898679E-01 3.699959489E-03
 1.215368286E-01 3.693123581E-03
 1.228889376E-01 3.686356591E-03
 1.242462471E-01 3.679656889E-03
 1.256088018E-01 3.673022846E-03
 1.269766539E-01 3.666453063E-03
 1.283498406E-01 3.659946378E-03
 1.297284365E-01 3.653501160E-03
 1.311124712E-01 3.647116013E-03
 1.325020045E-01 3.640790004E-03
 1.338970959E-01 3.634521738E-03
 1.352977753E-01 3.628310049E-03
 1.367041171E-01 3.622153541E-03
 1.381161511E-01 3.616051516E-03
 1.395339519E-01 3.610002343E-03
 1.409575790E-01 3.604005091E-03
 1.423870623E-01 3.598058829E-03
 1.438224763E-01 3.592162626E-03
 1.452638805E-01 3.586315317E-03
 1.467113197E-01 3.580515971E-03
 1.481648535E-01 3.574763425E-03
 1.496245414E-01 3.569057211E-03
 1.510904431E-01 3.563396167E-03
 1.525626183E-01 3.557779361E-03
 1.540411264E-01 3.552205861E-03
 1.555260271E-01 3.546675202E-03
 1.570173800E-01 3.541186452E-03
 1.585152596E-01 3.535738448E-03
 1.600197256E-01 3.530330956E-03
 1.615308374E-01 3.524962813E-03
 1.630486548E-01 3.519633552E-03
 1.645732373E-01 3.514342243E-03
 1.661046743E-01 3.509088187E-03
 1.676430106E-01 3.503870917E-03
 1.691883355E-01 3.498689737E-03
 1.707406938E-01 3.493543714E-03
 1.723001748E-01 3.488432616E-03
 1.738668382E-01 3.483355511E-03
 1.754407436E-01 3.478311934E-03
 1.770219952E-01 3.473301185E-03
 1.786106378E-01 3.468322800E-03
 1.802067459E-01 3.463376081E-03
 1.818104088E-01 3.458460327E-03
 1.834216863E-01 3.453575540E-03
 1.850406677E-01 3.448720556E-03
 1.866674274E-01 3.443895373E-03
 1.883020550E-01 3.439099062E-03
 1.899445951E-01 3.434331389E-03
 1.915951520E-01 3.429591656E-03
 1.932538152E-01 3.424879396E-03
 1.949206442E-01 3.420194378E-03
 1.965957433E-01 3.415535903E-03
 1.982791722E-01 3.410903504E-03
 1.999710351E-01 3.406296950E-03
 2.016714215E-01 3.401715541E-03
 2.033804059E-01 3.397159046E-03
 2.050980777E-01 3.392626997E-03
 2.068245411E-01 3.388118930E-03
 2.085598707E-01 3.383634379E-03
 2.103041708E-01 3.379172878E-03
 2.120575309E-01 3.374734428E-03
 2.138200402E-01 3.370318329E-03
 2.155917883E-01 3.365924349E-03
 2.173728943E-01 3.361552022E-03
 2.191634327E-01 3.357200883E-03
 2.209635228E-01 3.352870932E-03
 2.227732539E-01 3.348561237E-03
 2.245927304E-01 3.344272031E-03
 2.264220566E-01 3.340002848E-03
 2.282613367E-01 3.335753223E-03
 2.301106751E-01 3.331522690E-03
 2.319701910E-01 3.327311017E-03
 2.338399738E-01 3.323118202E-03
 2.357201427E-01 3.318943782E-03
 2.376108319E-01 3.314787056E-03
 2.395121157E-01 3.310648259E-03
 2.414241433E-01 3.306526924E-03
 2.433470190E-01 3.302422585E-03
 2.452808470E-01 3.298335010E-03
 2.472257763E-01 3.294263966E-03
 2.491818964E-01 3.290209454E-03
 2.511493564E-01 3.286170773E-03
 2.531282902E-01 3.282147693E-03
 2.551187873E-01 3.278140211E-03
 2.571209967E-01 3.274147864E-03
 2.591350675E-01 3.270170419E-03
 2.611611187E-01 3.266207874E-03
 2.631992698E-01 3.262259532E-03
 2.652496696E-01 3.258325392E-03
 2.673124373E-01 3.254405223E-03
 2.693877518E-01 3.250498557E-03
 2.714757323E-01 3.246605629E-03
 2.735765278E-01 3.242725739E-03
 2.756902874E-01 3.238858888E-03
 2.778171599E-01 3.235004842E-03
 2.799572945E-01 3.231163137E-03
 2.821108401E-01 3.227334004E-03
 2.842779458E-01 3.223516745E-03
 2.864587903E-01 3.219711361E-03
 2.886535227E-01 3.215917852E-03
 2.908623219E-01 3.212135518E-03
 2.930853069E-01 3.208364593E-03
 2.953226864E-01 3.204604611E-03
 2.975746393E-01 3.200855339E-03
 2.998413146E-01 3.197116777E-03
 3.021228909E-01 3.193388693E-03
 3.044195473E-01 3.189670853E-03
 3.067314625E-01 3.185962792E-03
 3.090588450E-01 3.182264743E-03
 3.114018440E-01 3.178576240E-03
 3.137606978E-01 3.174897283E-03
 3.161355257E-01 3.171227407E-03
 3.185265958E-01 3.167566611E-03
 3.209340870E-01 3.163914895E-03
 3.233581781E-01 3.160271561E-03
 3.257990777E-01 3.156637074E-03
 3.282570243E-01 3.153010737E-03
 3.307321966E-01 3.149392549E-03
 3.332248330E-01 3.145782510E-03
 3.357351422E-01 3.142180154E-03
 3.382633626E-01 3.138585482E-03
 3.408097029E-01 3.134998260E-03
 3.433744013E-01 3.131418256E-03
 3.459576964E-01 3.127845470E-03
 3.485597968E-01 3.124279669E-03
 3.511810005E-01 3.120720619E-03
 3.538214862E-01 3.117168322E-03
 3.564815521E-01 3.113622312E-03
 3.591614366E-01 3.110082820E-03
 3.618614078E-01 3.106549382E-03
 3.645817339E-01 3.103021765E-03
 3.673226237E-01 3.099500202E-03
 3.700844347E-01 3.095984226E-03
 3.728674054E-01 3.092473838E-03
 3.756718040E-01 3.088968806E-03
 3.784979284E-01 3.085468896E-03
 3.813460767E-01 3.081974108E-03
 3.842165470E-01 3.078483976E-03
 3.871096373E-01 3.074998967E-03
 3.900256455E-01 3.071518382E-03
 3.929648995E-01 3.068042221E-03
 3.959276974E-01 3.064570250E-03
 3.989143968E-01 3.061102703E-03
 4.019253254E-01 3.057638882E-03
 4.049607813E-01 3.054179018E-03
 4.080211222E-01 3.050722880E-03
 4.111067355E-01 3.047270235E-03
 4.142179191E-01 3.043821082E-03
 4.173550904E-01 3.040375188E-03
 4.205185771E-01 3.036932321E-03
 4.237087667E-01 3.033492481E-03
 4.269260764E-01 3.030055203E-03
 4.301708341E-01 3.026620951E-03
 4.334434569E-01 3.023189027E-03
 4.367443919E-01 3.019759664E-03
 4.400739968E-01 3.016332397E-03
 4.434327483E-01 3.012907226E-03
 4.468210340E-01 3.009484150E-03
 4.502393007E-01 3.006062703E-03
 4.536879957E-01 3.002643120E-03
 4.571675658E-01 2.999224933E-03
 4.606784880E-01 2.995808143E-03
 4.642212391E-01 2.992392518E-03
 4.677962959E-01 2.988978056E-03
 4.714041352E-01 2.985564526E-03
 4.750452936E-01 2.982151695E-03
 4.787202775E-01 2.978739794E-03
 4.824295640E-01 2.975328127E-03
 4.861737490E-01 2.971917158E-03
 4.899533391E-01 2.968506189E-03
 4.937689006E-01 2.965095220E-03
 4.976209998E-01 2.961684251E-03
 5.015102029E-01 2.958273282E-03
 5.054371357E-01 2.954861848E-03
 5.094023943E-01 2.951449715E-03
 5.134065747E-01 2.948037116E-03
 5.174503326E-01 2.944623819E-03
 5.215342641E-01 2.941209357E-03
 5.256590843E-01 2.937793965E-03
 5.298254490E-01 2.934377408E-03
 5.340340734E-01 2.930959454E-03
 5.382856131E-01 2.927539870E-03
 5.425807834E-01 2.924118657E-03
 5.469203591E-01 2.920695581E-03
 5.513049960E-01 2.917270409E-03
 5.557355881E-01 2.913843375E-03
 5.602129102E-01 2.910413779E-03
 5.647376776E-01 2.906981856E-03
 5.693107247E-01 2.903547371E-03
 5.739330053E-01 2.900110092E-03
 5.786052346E-01 2.896670019E-03
 5.833283663E-01 2.893226920E-03
 5.881032944E-01 2.889780328E-03
 5.929309130E-01 2.886330476E-03
 5.978122354E-01 2.882877132E-03
 6.027481556E-01 2.879420063E-03
 6.077396870E-01 2.875959268E-03
 6.127878428E-01 2.872494282E-03
 6.178936362E-01 2.869025106E-03
 6.230581999E-01 2.865551505E-03
 6.282825470E-01 2.862073248E-03
 6.335678697E-01 2.858590567E-03
 6.389152408E-01 2.855102764E-03
 6.443258524E-01 2.851610072E-03
 6.498009562E-01 2.848112024E-03
 6.553417444E-01 2.844608622E-03
 6.609494686E-01 2.841099631E-03
 6.666254401E-01 2.837584820E-03
 6.723710299E-01 2.834064187E-03
 6.781874895E-01 2.830537269E-03
 6.840763688E-01 2.827004064E-03
 6.900390387E-01 2.823464340E-03
 6.960769296E-01 2.819917863E-03
 7.021916509E-01 2.816364635E-03
 7.083846927E-01 2.812804189E-03
 7.146576643E-01 2.809236292E-03
 7.210122347E-01 2.805661177E-03
 7.274500728E-01 2.802078146E-03
 7.339729071E-01 2.798487432E-03
 7.405825853E-01 2.794888569E-03
 7.472808361E-01 2.791281091E-03
 7.540696263E-01 2.787665464E-03
 7.609508634E-01 2.784040757E-03
 7.679265738E-01 2.780407201E-03
 7.749987841E-01 2.776764566E-03
 7.821695805E-01 2.773112385E-03
 7.894411683E-01 2.769450657E-03
 7.968158126E-01 2.765778918E-03
 8.042958379E-01 2.762096934E-03
 8.118835092E-01 2.758404939E-03
 8.195813894E-01 2.754702000E-03
 8.273919821E-01 2.750988351E-03
 8.353177905E-01 2.747263527E-03
 8.433616161E-01 2.743527526E-03
 8.515261412E-01 2.739779651E-03
 8.598142862E-01 2.736019902E-03
 8.682289124E-01 2.732248046E-03
 8.767731786E-01 2.728463616E-03
 8.854500651E-01 2.724666614E-03
 8.942628503E-01 2.720856341E-03
 9.032149911E-01 2.717033029E-03
 9.123097658E-01 2.713195980E-03
 9.215508699E-01 2.709344961E-03
 9.309419394E-01 2.705479739E-03
 9.404867887E-01 2.701599617E-03
 9.501893520E-01 2.697704127E-03
 9.600536823E-01 2.693792572E-03
 9.700840712E-01 2.689866349E-03
 9.802848101E-01 2.685927553E-03
 9.906604290E-01 2.681986196E-03
 1.001215577E+00 2.678010380E-03
 1.011955261E+00 2.674011514E-03
 1.022694826E+00 2.670075046E-03
 1.033434510E+00 2.666199347E-03
 1.044174075E+00 2.662362764E-03
 1.054913640E+00 2.658574143E-03
 1.065653324E+00 2.654830692E-03
 1.076392889E+00 2.651131945E-03
 1.087132573E+00 2.647477435E-03
 1.097872138E+00 2.643865533E-03
 1.108611822E+00 2.640296007E-03
 1.119351387E+00 2.636767691E-03
 1.130090952E+00 2.633279655E-03
 1.140830636E+00 2.629830968E-03
 1.151570201E+00 2.626420930E-03
 1.162309885E+00 2.623048844E-03
 1.173049450E+00 2.619713778E-03
 1.183789134E+00 2.616415033E-03
 1.194528699E+00 2.613151679E-03
 1.205268383E+00 2.609923249E-03
 1.216007948E+00 2.606729046E-03
 1.226747513E+00 2.603568137E-03
 1.237487197E+00 2.600440290E-03
 1.248226762E+00 2.597344806E-03
 1.258966446E+00 2.594280755E-03
 1.269706011E+00 2.591248136E-03
 1.280445695E+00 2.588246018E-03
 1.291185260E+00 2.585274167E-03
 1.301924825E+00 2.582331654E-03
 1.312664509E+00 2.579418710E-03
 1.323404074E+00 2.576534171E-03
 1.334143758E+00 2.573678037E-03
 1.344883323E+00 2.570849843E-03
 1.355623007E+00 2.568048891E-03
 1.366362572E+00 2.565274946E-03
 1.377102256E+00 2.562527778E-03
 1.387841821E+00 2.559806686E-03
 1.398581386E+00 2.557111438E-03
 1.409321070E+00 2.554441569E-03
 1.420060635E+00 2.551796846E-03
 1.430800319E+00 2.549176570E-03
 1.441539884E+00 2.546580741E-03
 1.452279568E+00 2.544008661E-03
 1.463019133E+00 2.541460097E-03
 1.473758817E+00 2.538934816E-03
 1.484498382E+00 2.536432352E-03
 1.495237947E+00 2.533952473E-03
 1.505977631E+00 2.531494712E-03
 1.516717196E+00 2.529058605E-03
 1.527456880E+00 2.526643919E-03
 1.538196445E+00 2.524250653E-03
 1.548936129E+00 2.521877876E-03
 1.559675694E+00 2.519525820E-03
 1.570415258E+00 2.517194021E-03
 1.581154943E+00 2.514882013E-03
 1.591894507E+00 2.512589796E-03
 1.602634192E+00 2.510316670E-03
 1.613373756E+00 2.508062636E-03
 1.624113441E+00 2.505827695E-03
 1.634853005E+00 2.503610915E-03
 1.645592690E+00 2.501412528E-03
 1.656332254E+00 2.499232301E-03
 1.667071819E+00 2.497069770E-03
 1.677811503E+00 2.494924935E-03
 1.688551068E+00 2.492797328E-03
 1.699290752E+00 2.490686951E-03
 1.710030317E+00 2.488593571E-03
 1.720770001E+00 2.486516954E-03
 1.731509566E+00 2.484456869E-03
 1.742249131E+00 2.482413314E-03
 1.752988815E+00 2.480386058E-03
 1.763728380E+00 2.478375100E-03
 1.774468064E+00 2.476380207E-03
 1.785207629E+00 2.474401379E-03
 1.795947313E+00 2.472438384E-03
 1.806686878E+00 2.470491454E-03
 1.817426562E+00 2.468560589E-03
 1.828166127E+00 2.466645790E-03
 1.838905692E+00 2.464747056E-03
 1.849645376E+00 2.462864853E-03
 1.860384941E+00 2.460999181E-03
 1.871124625E+00 2.459150273E-03
 1.881864190E+00 2.457318595E-03
 1.892603874E+00 2.455504145E-03
 1.903343439E+00 2.453706926E-03
 1.914083004E+00 2.451927401E-03
 1.924822688E+00 2.450166503E-03
 1.935562253E+00 2.448427957E-03
 1.946301937E+00 2.446703613E-03
 1.957041502E+00 2.444986021E-03
 1.967781186E+00 2.443026984E-03
 1.978520751E+00 2.441839548E-03
 1.989260435E+00 2.439263742E-03
ZONE T="TAU"
 0.000000000E+00 2.278917283E-02
 1.000000047E-03 6.867844146E-03
 2.001968445E-03 5.600654986E-03
 3.005924402E-03 5.351093132E-03
 4.011887591E-03 5.479176529E-03
 5.019877572E-03 5.695340224E-03
 6.029913668E-03 5.845416803E-03
 7.042016368E-03 5.897846073E-03
 8.056204766E-03 5.879946053E-03
 9.072500281E-03 5.825033411E-03
 1.009092201E-02 5.754139740E-03
 1.111149136E-02 5.677452311E-03
 1.213422790E-02 5.599579308E-03
 1.315915212E-02 5.522933323E-03
 1.418628637E-02 5.448958836E-03
 1.521565020E-02 5.378488917E-03
 1.624726504E-02 5.311892368E-03
 1.728115417E-02 5.249221809E-03
 1.831733435E-02 5.190338939E-03
 1.935583353E-02 5.135010462E-03
 2.039666846E-02 5.082967225E-03
 2.143986151E-02 5.033938214E-03
 2.248543687E-02 4.987667780E-03
 2.353341691E-02 4.943920299E-03
 2.458382212E-02 4.902480170E-03
 2.563667670E-02 4.863150418E-03
 2.669200115E-02 4.825750832E-03
 2.774982154E-02 4.790122155E-03
 2.881015837E-02 4.756121896E-03
 2.987303585E-02 4.723623395E-03
 3.093848005E-02 4.692515358E-03
 3.200650960E-02 4.662696738E-03
 3.307715058E-02 4.634073935E-03
 3.415042907E-02 4.606562201E-03
 3.522636741E-02 4.580083769E-03
 3.630498797E-02 4.554567859E-03
 3.738632053E-02 4.529949743E-03
 3.847038746E-02 4.506171681E-03
 3.955721110E-02 4.483180586E-03
 4.064681754E-02 4.460929893E-03
 4.173923656E-02 4.439377692E-03
 4.283448681E-02 4.418486729E-03
 4.393260181E-02 4.398220219E-03
 4.503360018E-02 4.378545564E-03
 4.613751546E-02 4.359432030E-03
 4.724436626E-02 4.340850282E-03
 4.835418612E-02 4.322772380E-03
 4.946699739E-02 4.305173643E-03
 5.058282986E-02 4.288029391E-03
 5.170170963E-02 4.271317273E-03
 5.282366648E-02 4.255017731E-03
 5.394872278E-02 4.239111207E-03
 5.507691577E-02 4.223579541E-03
 5.620826408E-02 4.208406433E-03
 5.734280124E-02 4.193576518E-03
 5.848055333E-02 4.179074895E-03
 5.962155387E-02 4.164888524E-03
 6.076582894E-02 4.151003901E-03
 6.191340834E-02 4.137409385E-03
 6.306432188E-02 4.124092869E-03
 6.421860307E-02 4.111043643E-03
 6.537627429E-02 4.098251928E-03
 6.653737277E-02 4.085707478E-03
 6.770192832E-02 4.073401447E-03
 6.886997819E-02 4.061324988E-03
 7.004153728E-02 4.049469717E-03
 7.121665031E-02 4.037828185E-03
 7.239534706E-02 4.026392940E-03
 7.357765734E-02 4.015156534E-03
 7.476361841E-02 4.004112445E-03
 7.595326006E-02 3.993255086E-03
 7.714661211E-02 3.982577473E-03
 7.834371924E-02 3.972073551E-03
 7.954459637E-02 3.961738665E-03
 8.074929565E-02 3.951566759E-03
 8.195784688E-02 3.941552714E-03
 8.317027986E-02 3.931691404E-03
 8.438663185E-02 3.921978641E-03
 8.560694009E-02 3.912409302E-03
 8.683124185E-02 3.902979428E-03
 8.805956692E-02 3.893685061E-03
 8.929195255E-02 3.884522012E-03
 9.052844346E-02 3.875486553E-03
 9.176907688E-02 3.866574960E-03
 9.301388264E-02 3.857783973E-03
 9.426289797E-02 3.849110333E-03
 9.551616758E-02 3.840551013E-03
 9.677372128E-02 3.832102753E-03
 9.803561121E-02 3.823762992E-03
 9.930186719E-02 3.815528471E-03
 1.005725339E-01 3.807396861E-03
 1.018476486E-01 3.799365368E-03
 1.031272486E-01 3.791431198E-03
 1.044113860E-01 3.783592489E-03
 1.057000905E-01 3.775846446E-03
 1.069934070E-01 3.768190509E-03
 1.082913801E-01 3.760623047E-03
 1.095940545E-01 3.753141500E-03
 1.109014750E-01 3.745743772E-03
 1.122136712E-01 3.738428233E-03
 1.135307029E-01 3.731192322E-03
 1.148526073E-01 3.724034410E-03
 1.161794290E-01 3.716952866E-03
 1.175112203E-01 3.709945828E-03
 1.188480183E-01 3.703011200E-03
 1.201898679E-01 3.696147818E-03
 1.215368286E-01 3.689354053E-03
 1.228889376E-01 3.682627808E-03
 1.242462471E-01 3.675968153E-03
 1.256088018E-01 3.669373458E-03
 1.269766539E-01 3.662842326E-03
 1.283498406E-01 3.656373126E-03
 1.297284365E-01 3.649965161E-03
 1.311124712E-01 3.643616568E-03
 1.325020045E-01 3.637326183E-03
 1.338970959E-01 3.631092841E-03
 1.352977753E-01 3.624915611E-03
 1.367041171E-01 3.618792864E-03
 1.381161511E-01 3.612723900E-03
 1.395339519E-01 3.606707323E-03
 1.409575790E-01 3.600742202E-03
 1.423870623E-01 3.594827605E-03
 1.438224763E-01 3.588962369E-03
 1.452638805E-01 3.583145561E-03
 1.467113197E-01 3.577376250E-03
 1.481648535E-01 3.571653506E-03
 1.496245414E-01 3.565976163E-03
 1.510904431E-01 3.560343757E-03
 1.525626183E-01 3.554754891E-03
 1.540411264E-01 3.549209563E-03
 1.555260271E-01 3.543706145E-03
 1.570173800E-01 3.538243938E-03
 1.585152596E-01 3.532822710E-03
 1.600197256E-01 3.527441295E-03
 1.615308374E-01 3.522098996E-03
 1.630486548E-01 3.516795114E-03
 1.645732373E-01 3.511528950E-03
 1.661046743E-01 3.506299807E-03
 1.676430106E-01 3.501106985E-03
 1.691883355E-01 3.495949786E-03
 1.707406938E-01 3.490827978E-03
 1.723001748E-01 3.485740162E-03
 1.738668382E-01 3.480686340E-03
 1.754407436E-01 3.475665580E-03
 1.770219952E-01 3.470677650E-03
 1.786106378E-01 3.465721384E-03
 1.802067459E-01 3.460796783E-03
 1.818104088E-01 3.455902915E-03
 1.834216863E-01 3.451039549E-03
 1.850406677E-01 3.446205985E-03
 1.866674274E-01 3.441401524E-03
 1.883020550E-01 3.436625935E-03
 1.899445951E-01 3.431878751E-03
 1.915951520E-01 3.427159274E-03
 1.932538152E-01 3.422467038E-03
 1.949206442E-01 3.417801578E-03
 1.965957433E-01 3.413162660E-03
 1.982791722E-01 3.408549586E-03
 1.999710351E-01 3.403962124E-03
 2.016714215E-01 3.399399808E-03
 2.033804059E-01 3.394861938E-03
 2.050980777E-01 3.390348284E-03
 2.068245411E-01 3.385858377E-03
 2.085598707E-01 3.381391987E-03
 2.103041708E-01 3.376948880E-03
 2.120575309E-01 3.372527892E-03
 2.138200402E-01 3.368129488E-03
 2.155917883E-01 3.363752970E-03
 2.173728943E-01 3.359397873E-03
 2.191634327E-01 3.355063731E-03
 2.209635228E-01 3.350750543E-03
 2.227732539E-01 3.346458077E-03
 2.245927304E-01 3.342185402E-03
 2.264220566E-01 3.337932751E-03
 2.282613367E-01 3.333699191E-03
 2.301106751E-01 3.329485189E-03
 2.319701910E-01 3.325289814E-03
 2.338399738E-01 3.321112832E-03
 2.357201427E-01 3.316954244E-03
 2.376108319E-01 3.312813351E-03
 2.395121157E-01 3.308690153E-03
 2.414241433E-01 3.304584417E-03
 2.433470190E-01 3.300495446E-03
 2.452808470E-01 3.296423238E-03
 2.472257763E-01 3.292367561E-03
 2.491818964E-01 3.288327949E-03
 2.511493564E-01 3.284304403E-03
 2.531282902E-01 3.280296223E-03
 2.551187873E-01 3.276303411E-03
 2.571209967E-01 3.272325965E-03
 2.591350675E-01 3.268363187E-03
 2.611611187E-01 3.264414845E-03
 2.631992698E-01 3.260481171E-03
 2.652496696E-01 3.256561235E-03
 2.673124373E-01 3.252655501E-03
 2.693877518E-01 3.248763038E-03
 2.714757323E-01 3.244884079E-03
 2.735765278E-01 3.241018392E-03
 2.756902874E-01 3.237165511E-03
 2.778171599E-01 3.233325202E-03
 2.799572945E-01 3.229497466E-03
 2.821108401E-01 3.225681838E-03
 2.842779458E-01 3.221878316E-03
 2.864587903E-01 3.218086669E-03
 2.886535227E-01 3.214306664E-03
 2.908623219E-01 3.210537834E-03
 2.930853069E-01 3.206780180E-03
 2.953226864E-01 3.203033702E-03
 2.975746393E-01 3.199297935E-03
 2.998413146E-01 3.195572644E-03
 3.021228909E-01 3.191857599E-03
 3.044195473E-01 3.188153030E-03
 3.067314625E-01 3.184458241E-03
 3.090588450E-01 3.180773230E-03
 3.114018440E-01 3.177097766E-03
 3.137606978E-01 3.173431847E-03
 3.161355257E-01 3.169775009E-03
 3.185265958E-01 3.166127251E-03
 3.209340870E-01 3.162488341E-03
 3.233581781E-01 3.158858046E-03
 3.257990777E-01 3.155236365E-03
 3.282570243E-01 3.151623067E-03
 3.307321966E-01 3.148017684E-03
 3.332248330E-01 3.144420218E-03
 3.357351422E-01 3.140830668E-03
 3.382633626E-01 3.137248801E-03
 3.408097029E-01 3.133674385E-03
 3.433744013E-01 3.130106954E-03
 3.459576964E-01 3.126546973E-03
 3.485597968E-01 3.122993745E-03
 3.511810005E-01 3.119447501E-03
 3.538214862E-01 3.115907777E-03
 3.564815521E-01 3.112374339E-03
 3.591614366E-01 3.108847421E-03
 3.618614078E-01 3.105326556E-03
 3.645817339E-01 3.101811744E-03
 3.673226237E-01 3.098302521E-03
 3.700844347E-01 3.094799118E-03
 3.728674054E-01 3.091301303E-03
 3.756718040E-01 3.087808844E-03
 3.784979284E-01 3.084321506E-03
 3.813460767E-01 3.080839291E-03
 3.842165470E-01 3.077361966E-03
 3.871096373E-01 3.073889297E-03
 3.900256455E-01 3.070421284E-03
 3.929648995E-01 3.066957695E-03
 3.959276974E-01 3.063498298E-03
 3.989143968E-01 3.060043324E-03
 4.019253254E-01 3.056592075E-03
 4.049607813E-01 3.053144785E-03
 4.080211222E-01 3.049701219E-03
 4.111067355E-01 3.046261379E-03
 4.142179191E-01 3.042824799E-03
 4.173550904E-01 3.039391479E-03
 4.205185771E-01 3.035961185E-03
 4.237087667E-01 3.032533918E-03
 4.269260764E-01 3.029109677E-03
 4.301708341E-01 3.025687998E-03
 4.334434569E-01 3.022268880E-03
 4.367443919E-01 3.018852090E-03
 4.400739968E-01 3.015437629E-03
 4.434327483E-01 3.012025263E-03
 4.468210340E-01 3.008614993E-03
 4.502393007E-01 3.005206352E-03
 4.536879957E-01 3.001799574E-03
 4.571675658E-01 2.998394193E-03
 4.606784880E-01 2.994990442E-03
 4.642212391E-01 2.991587855E-03
 4.677962959E-01 2.988186432E-03
 4.714041352E-01 2.984785940E-03
 4.750452936E-01 2.981386380E-03
 4.787202775E-01 2.977987286E-03
 4.824295640E-01 2.974588890E-03
 4.861737490E-01 2.971190959E-03
 4.899533391E-01 2.967793262E-03
 4.937689006E-01 2.964395797E-03
 4.976209998E-01 2.960998332E-03
 5.015102029E-01 2.957600402E-03
 5.054371357E-01 2.954202471E-03
 5.094023943E-01 2.950804075E-03
 5.134065747E-01 2.947404981E-03
 5.174503326E-01 2.944005188E-03
 5.215342641E-01 2.940604463E-03
 5.256590843E-01 2.937202808E-03
 5.298254490E-01 2.933799755E-03
 5.340340734E-01 2.930395538E-03
 5.382856131E-01 2.926989924E-03
 5.425807834E-01 2.923582681E-03
 5.469203591E-01 2.920173574E-03
 5.513049960E-01 2.916762372E-03
 5.557355881E-01 2.913349308E-03
 5.602129102E-01 2.909934148E-03
 5.647376776E-01 2.906516427E-03
 5.693107247E-01 2.903096145E-03
 5.739330053E-01 2.899673302E-03
 5.786052346E-01 2.896247432E-03
 5.833283663E-01 2.892818768E-03
 5.881032944E-01 2.889386844E-03
 5.929309130E-01 2.885951661E-03
 5.978122354E-01 2.882512985E-03
 6.027481556E-01 2.879070584E-03
 6.077396870E-01 2.875624457E-03
 6.127878428E-01 2.872174373E-03
 6.178936362E-01 2.868720097E-03
 6.230581999E-01 2.865261631E-03
 6.282825470E-01 2.861798741E-03
 6.335678697E-01 2.858331194E-03
 6.389152408E-01 2.854858758E-03
 6.443258524E-01 2.851381432E-03
 6.498009562E-01 2.847898984E-03
 6.553417444E-01 2.844411181E-03
 6.609494686E-01 2.840918023E-03
 6.666254401E-01 2.837419044E-03
 6.723710299E-01 2.833914245E-03
 6.781874895E-01 2.830403391E-03
 6.840763688E-01 2.826886252E-03
 6.900390387E-01 2.823362825E-03
 6.960769296E-01 2.819832647E-03
 7.021916509E-01 2.816295717E-03
 7.083846927E-01 2.812751802E-03
 7.146576643E-01 2.809200902E-03
 7.210122347E-01 2.805642318E-03
 7.274500728E-01 2.802076284E-03
 7.339729071E-01 2.798502566E-03
 7.405825853E-01 2.794920700E-03
 7.472808361E-01 2.791330684E-03
 7.540696263E-01 2.787732286E-03
 7.609508634E-01 2.784125274E-03
 7.679265738E-01 2.780509414E-03
 7.749987841E-01 2.776884474E-03
 7.821695805E-01 2.773250220E-03
 7.894411683E-01 2.769606421E-03
 7.968158126E-01 2.765952842E-03
 8.042958379E-01 2.762289485E-03
 8.118835092E-01 2.758615650E-03
 8.195813894E-01 2.754931571E-03
 8.273919821E-01 2.751236549E-03
 8.353177905E-01 2.747530583E-03
 8.433616161E-01 2.743813442E-03
 8.515261412E-01 2.740084892E-03
 8.598142862E-01 2.736344468E-03
 8.682289124E-01 2.732592169E-03
 8.767731786E-01 2.728827531E-03
 8.854500651E-01 2.725050086E-03
 8.942628503E-01 2.721259836E-03
 9.032149911E-01 2.717456548E-03
 9.123097658E-01 2.713639755E-03
 9.215508699E-01 2.709809225E-03
 9.309419394E-01 2.705964725E-03
 9.404867887E-01 2.702105790E-03
 9.501893520E-01 2.698232420E-03
 9.600536823E-01 2.694344148E-03
 9.700840712E-01 2.690440044E-03
 9.802848101E-01 2.686517779E-03
 9.906604290E-01 2.682579216E-03
 1.001215577E+00 2.678622259E-03
 1.011955261E+00 2.674671356E-03
 1.022694826E+00 2.670760034E-03
 1.033434510E+00 2.666895045E-03
 1.044174075E+00 2.663078485E-03
 1.054913640E+00 2.659309655E-03
 1.065653324E+00 2.655586926E-03
 1.076392889E+00 2.651909366E-03
 1.087132573E+00 2.648275578E-03
 1.097872138E+00 2.644684864E-03
 1.108611822E+00 2.641136525E-03
 1.119351387E+00 2.637628932E-03
 1.130090952E+00 2.634161850E-03
 1.140830636E+00 2.630734118E-03
 1.151570201E+00 2.627345035E-03
 1.162309885E+00 2.623993903E-03
 1.173049450E+00 2.620679559E-03
 1.183789134E+00 2.617401304E-03
 1.194528699E+00 2.614158904E-03
 1.205268383E+00 2.610951196E-03
 1.216007948E+00 2.607777482E-03
 1.226747513E+00 2.604637528E-03
 1.237487197E+00 2.601530403E-03
 1.248226762E+00 2.598455641E-03
 1.258966446E+00 2.595412545E-03
 1.269706011E+00 2.592400648E-03
 1.280445695E+00 2.589419717E-03
 1.291185260E+00 2.586468821E-03
 1.301924825E+00 2.583547495E-03
 1.312664509E+00 2.580655739E-03
 1.323404074E+00 2.577792853E-03
 1.334143758E+00 2.574958140E-03
 1.344883323E+00 2.572151599E-03
 1.355623007E+00 2.569372766E-03
 1.366362572E+00 2.566621173E-03
 1.377102256E+00 2.563896356E-03
 1.387841821E+00 2.561197849E-03
 1.398581386E+00 2.558525652E-03
 1.409321070E+00 2.555879299E-03
 1.420060635E+00 2.553258091E-03
 1.430800319E+00 2.550662262E-03
 1.441539884E+00 2.548090881E-03
 1.452279568E+00 2.545544179E-03
 1.463019133E+00 2.543021226E-03
 1.473758817E+00 2.540522488E-03
 1.484498382E+00 2.538047032E-03
 1.495237947E+00 2.535594627E-03
 1.505977631E+00 2.533165505E-03
 1.516717196E+00 2.530758968E-03
 1.527456880E+00 2.528374782E-03
 1.538196445E+00 2.526012715E-03
 1.548936129E+00 2.523672767E-03
 1.559675694E+00 2.521354472E-03
 1.570415258E+00 2.519057831E-03
 1.581154943E+00 2.516782610E-03
 1.591894507E+00 2.514528809E-03
 1.602634192E+00 2.512295963E-03
 1.613373756E+00 2.510084072E-03
 1.624113441E+00 2.507893369E-03
 1.634853005E+00 2.505723387E-03
 1.645592690E+00 2.503574593E-03
 1.656332254E+00 2.501446521E-03
 1.667071819E+00 2.499339636E-03
 1.677811503E+00 2.497253940E-03
 1.688551068E+00 2.495189663E-03
 1.699290752E+00 2.493147040E-03
 1.710030317E+00 2.491126535E-03
 1.720770001E+00 2.489128383E-03
 1.731509566E+00 2.487153281E-03
 1.742249131E+00 2.485202160E-03
 1.752988815E+00 2.483275719E-03
 1.763728380E+00 2.481374890E-03
 1.774468064E+00 2.479501069E-03
 1.785207629E+00 2.477656351E-03
 1.795947313E+00 2.475842135E-03
 1.806686878E+00 2.474061446E-03
 1.817426562E+00 2.472317312E-03
 1.828166127E+00 2.470613457E-03
 1.838905692E+00 2.468955237E-03
 1.849645376E+00 2.467348473E-03
 1.860384941E+00 2.465803409E-03
 1.871124625E+00 2.464328194E-03
 1.881864190E+00 2.462942619E-03
 1.892603874E+00 2.461655531E-03
 1.903343439E+00 2.460503252E-03
 1.914083004E+00 2.459492302E-03
 1.924822688E+00 2.458740259E-03
 1.935562253E+00 2.458343515E-03
 1.946301937E+00 2.458611969E-03
 1.957041502E+00 2.459548879E-03
 1.967781186E+00 2.460921882E-03
 1.978520751E+00 2.462922363E-03
 1.989260435E+00 2.456809161E-03
 2.000000000E+00 2.456796123E-03
