variables="u","y"
zone,t="x=     0.97008"
   0.000000E+00   0.000000E+00
   0.334459E-02   0.500000E-06
   0.669229E-02   0.100047E-05
   0.100462E-01   0.150186E-05
   0.134095E-01   0.200465E-05
   0.167852E-01   0.250931E-05
   0.201765E-01   0.301630E-05
   0.235865E-01   0.352610E-05
   0.270183E-01   0.403918E-05
   0.304751E-01   0.455602E-05
   0.339599E-01   0.507709E-05
   0.374760E-01   0.560289E-05
   0.410264E-01   0.613390E-05
   0.446143E-01   0.667062E-05
   0.482427E-01   0.721354E-05
   0.519149E-01   0.776318E-05
   0.556338E-01   0.832003E-05
   0.594025E-01   0.888463E-05
   0.632241E-01   0.945749E-05
   0.671016E-01   0.100392E-04
   0.710379E-01   0.106302E-04
   0.750360E-01   0.112310E-04
   0.790987E-01   0.118424E-04
   0.832287E-01   0.124647E-04
   0.874288E-01   0.130987E-04
   0.917014E-01   0.137448E-04
   0.960492E-01   0.144037E-04
   0.100474E+00   0.150761E-04
   0.104979E+00   0.157624E-04
   0.109564E+00   0.164634E-04
   0.114233E+00   0.171798E-04
   0.118987E+00   0.179121E-04
   0.123826E+00   0.186610E-04
   0.128752E+00   0.194274E-04
   0.133765E+00   0.202118E-04
   0.138865E+00   0.210150E-04
   0.144053E+00   0.218378E-04
   0.149327E+00   0.226808E-04
   0.154687E+00   0.235450E-04
   0.160131E+00   0.244311E-04
   0.165656E+00   0.253399E-04
   0.171261E+00   0.262723E-04
   0.176942E+00   0.272291E-04
   0.182696E+00   0.282113E-04
   0.188518E+00   0.292197E-04
   0.194403E+00   0.302553E-04
   0.200347E+00   0.313190E-04
   0.206344E+00   0.324119E-04
   0.212387E+00   0.335349E-04
   0.218470E+00   0.346891E-04
   0.224585E+00   0.358756E-04
   0.230727E+00   0.370955E-04
   0.236886E+00   0.383499E-04
   0.243056E+00   0.396399E-04
   0.249228E+00   0.409669E-04
   0.255395E+00   0.423319E-04
   0.261550E+00   0.437363E-04
   0.267685E+00   0.451814E-04
   0.273792E+00   0.466686E-04
   0.279865E+00   0.481991E-04
   0.285898E+00   0.497746E-04
   0.291884E+00   0.513963E-04
   0.297819E+00   0.530658E-04
   0.303696E+00   0.547847E-04
   0.309513E+00   0.565545E-04
   0.315264E+00   0.583770E-04
   0.320947E+00   0.602538E-04
   0.326560E+00   0.621866E-04
   0.332099E+00   0.641773E-04
   0.337565E+00   0.662277E-04
   0.342954E+00   0.683397E-04
   0.348268E+00   0.705153E-04
   0.353505E+00   0.727565E-04
   0.358667E+00   0.750654E-04
   0.363753E+00   0.774441E-04
   0.368765E+00   0.798948E-04
   0.373704E+00   0.824199E-04
   0.378570E+00   0.850216E-04
   0.383366E+00   0.877025E-04
   0.388093E+00   0.904649E-04
   0.392754E+00   0.933115E-04
   0.397349E+00   0.962449E-04
   0.401882E+00   0.992679E-04
   0.406353E+00   0.102383E-03
   0.410765E+00   0.105594E-03
   0.415120E+00   0.108903E-03
   0.419419E+00   0.112313E-03
   0.423666E+00   0.115827E-03
   0.427861E+00   0.119450E-03
   0.432006E+00   0.123183E-03
   0.436104E+00   0.127031E-03
   0.440156E+00   0.130997E-03
   0.444164E+00   0.135085E-03
   0.448129E+00   0.139299E-03
   0.452053E+00   0.143643E-03
   0.455938E+00   0.148120E-03
   0.459785E+00   0.152734E-03
   0.463595E+00   0.157491E-03
   0.467370E+00   0.162395E-03
   0.471110E+00   0.167449E-03
   0.474818E+00   0.172659E-03
   0.478495E+00   0.178030E-03
   0.482141E+00   0.183567E-03
   0.485758E+00   0.189274E-03
   0.489346E+00   0.195157E-03
   0.492908E+00   0.201222E-03
   0.496443E+00   0.207474E-03
   0.499952E+00   0.213920E-03
   0.503437E+00   0.220564E-03
   0.506899E+00   0.227413E-03
   0.510338E+00   0.234474E-03
   0.513754E+00   0.241753E-03
   0.517150E+00   0.249257E-03
   0.520524E+00   0.256993E-03
   0.523879E+00   0.264968E-03
   0.527215E+00   0.273189E-03
   0.530532E+00   0.281665E-03
   0.533832E+00   0.290402E-03
   0.537114E+00   0.299410E-03
   0.540379E+00   0.308696E-03
   0.543628E+00   0.318270E-03
   0.546862E+00   0.328139E-03
   0.550080E+00   0.338314E-03
   0.553284E+00   0.348804E-03
   0.556474E+00   0.359618E-03
   0.559650E+00   0.370767E-03
   0.562813E+00   0.382260E-03
   0.565963E+00   0.394109E-03
   0.569101E+00   0.406325E-03
   0.572227E+00   0.418919E-03
   0.575342E+00   0.431903E-03
   0.578446E+00   0.445288E-03
   0.581539E+00   0.459088E-03
   0.584622E+00   0.473314E-03
   0.587695E+00   0.487981E-03
   0.590758E+00   0.503102E-03
   0.593812E+00   0.518692E-03
   0.596858E+00   0.534763E-03
   0.599894E+00   0.551332E-03
   0.602923E+00   0.568414E-03
   0.605944E+00   0.586025E-03
   0.608957E+00   0.604181E-03
   0.611963E+00   0.622899E-03
   0.614962E+00   0.642197E-03
   0.617955E+00   0.662092E-03
   0.620941E+00   0.682603E-03
   0.623921E+00   0.703749E-03
   0.626896E+00   0.725550E-03
   0.629865E+00   0.748025E-03
   0.632829E+00   0.771197E-03
   0.635788E+00   0.795086E-03
   0.638742E+00   0.819715E-03
   0.641692E+00   0.845106E-03
   0.644639E+00   0.871283E-03
   0.647581E+00   0.898271E-03
   0.650520E+00   0.926095E-03
   0.653456E+00   0.954780E-03
   0.656389E+00   0.984354E-03
   0.659319E+00   0.101484E-02
   0.662248E+00   0.104628E-02
   0.665174E+00   0.107868E-02
   0.668098E+00   0.111209E-02
   0.671022E+00   0.114654E-02
   0.673944E+00   0.118205E-02
   0.676865E+00   0.121866E-02
   0.679786E+00   0.125641E-02
   0.682707E+00   0.129532E-02
   0.685628E+00   0.133544E-02
   0.688550E+00   0.137680E-02
   0.691473E+00   0.141944E-02
   0.694397E+00   0.146340E-02
   0.697323E+00   0.150873E-02
   0.700250E+00   0.155546E-02
   0.703181E+00   0.160363E-02
   0.706114E+00   0.165330E-02
   0.709051E+00   0.170450E-02
   0.711991E+00   0.175729E-02
   0.714936E+00   0.181172E-02
   0.717886E+00   0.186783E-02
   0.720841E+00   0.192568E-02
   0.723802E+00   0.198532E-02
   0.726769E+00   0.204680E-02
   0.729743E+00   0.211019E-02
   0.732725E+00   0.217555E-02
   0.735715E+00   0.224293E-02
   0.738714E+00   0.231239E-02
   0.741723E+00   0.238401E-02
   0.744742E+00   0.245784E-02
   0.747772E+00   0.253396E-02
   0.750814E+00   0.261244E-02
   0.753870E+00   0.269335E-02
   0.756939E+00   0.277676E-02
   0.760024E+00   0.286276E-02
   0.763124E+00   0.295142E-02
   0.766241E+00   0.304282E-02
   0.769377E+00   0.313706E-02
   0.772532E+00   0.323421E-02
   0.775708E+00   0.333438E-02
   0.778907E+00   0.343764E-02
   0.782130E+00   0.354411E-02
   0.785378E+00   0.365387E-02
   0.788654E+00   0.376703E-02
   0.791960E+00   0.388369E-02
   0.795296E+00   0.400397E-02
   0.798667E+00   0.412797E-02
   0.802074E+00   0.425582E-02
   0.805520E+00   0.438762E-02
   0.809007E+00   0.452350E-02
   0.812539E+00   0.466359E-02
   0.816119E+00   0.480803E-02
   0.819752E+00   0.495693E-02
   0.823440E+00   0.511044E-02
   0.827189E+00   0.526871E-02
   0.831004E+00   0.543189E-02
   0.834891E+00   0.560011E-02
   0.838855E+00   0.577355E-02
   0.842905E+00   0.595235E-02
   0.847049E+00   0.613669E-02
   0.851298E+00   0.632675E-02
   0.855667E+00   0.652268E-02
   0.860172E+00   0.672469E-02
   0.864841E+00   0.693295E-02
   0.869712E+00   0.714766E-02
   0.874833E+00   0.736903E-02
   0.880265E+00   0.759724E-02
   0.886061E+00   0.783253E-02
   0.892241E+00   0.807510E-02
   0.898777E+00   0.832518E-02
   0.905586E+00   0.858301E-02
   0.912560E+00   0.884883E-02
   0.919598E+00   0.912287E-02
   0.926622E+00   0.940540E-02
   0.933585E+00   0.969669E-02
   0.940407E+00   0.999699E-02
   0.946959E+00   0.103066E-01
   0.953187E+00   0.106258E-01
   0.959168E+00   0.109549E-01
   0.964999E+00   0.112941E-01
   0.970738E+00   0.116439E-01
   0.976391E+00   0.120045E-01
   0.981895E+00   0.123763E-01
   0.987090E+00   0.127596E-01
   0.991659E+00   0.131547E-01
   0.995157E+00   0.135621E-01
   0.997280E+00   0.139822E-01
   0.998201E+00   0.144152E-01
   0.998456E+00   0.148616E-01
   0.998495E+00   0.153219E-01
   0.998497E+00   0.157964E-01
   0.998497E+00   0.162856E-01
   0.998497E+00   0.167900E-01
   0.998496E+00   0.173099E-01
   0.998496E+00   0.178460E-01
   0.998496E+00   0.183987E-01
   0.998496E+00   0.189685E-01
   0.998496E+00   0.195560E-01
   0.998496E+00   0.201616E-01
   0.998495E+00   0.207860E-01
   0.998495E+00   0.214297E-01
   0.998495E+00   0.220934E-01
   0.998495E+00   0.227776E-01
   0.998495E+00   0.234831E-01
   0.998495E+00   0.242103E-01
   0.998494E+00   0.249601E-01
   0.998494E+00   0.257331E-01
   0.998494E+00   0.265301E-01
   0.998494E+00   0.273517E-01
   0.998493E+00   0.281988E-01
   0.998493E+00   0.290721E-01
   0.998493E+00   0.299724E-01
   0.998493E+00   0.309007E-01
   0.998492E+00   0.318576E-01
   0.998492E+00   0.328443E-01
   0.998492E+00   0.338614E-01
   0.998492E+00   0.349101E-01
   0.998491E+00   0.359913E-01
   0.998491E+00   0.371059E-01
   0.998491E+00   0.382551E-01
   0.998490E+00   0.394398E-01
   0.998490E+00   0.406613E-01
   0.998489E+00   0.419205E-01
   0.998489E+00   0.432188E-01
   0.998489E+00   0.445573E-01
   0.998488E+00   0.459372E-01
   0.998488E+00   0.473599E-01
   0.998487E+00   0.488266E-01
   0.998487E+00   0.503387E-01
   0.998487E+00   0.518977E-01
   0.998486E+00   0.535049E-01
   0.998486E+00   0.551620E-01
   0.998485E+00   0.568703E-01
   0.998485E+00   0.586316E-01
   0.998484E+00   0.604474E-01
   0.998484E+00   0.623194E-01
   0.998483E+00   0.642494E-01
   0.998482E+00   0.662392E-01
   0.998482E+00   0.682906E-01
   0.998481E+00   0.704056E-01
   0.998481E+00   0.725860E-01
   0.998480E+00   0.748340E-01
   0.998479E+00   0.771516E-01
   0.998479E+00   0.795409E-01
   0.998478E+00   0.820043E-01
   0.998477E+00   0.845439E-01
   0.998477E+00   0.871622E-01
   0.998476E+00   0.898616E-01
   0.998475E+00   0.926446E-01
   0.998474E+00   0.955138E-01
   0.998473E+00   0.984718E-01
   0.998473E+00   0.101521E+00
   0.998471E+00   0.104666E+00
   0.998471E+00   0.107907E+00
   0.998470E+00   0.111249E+00
   0.998469E+00   0.114694E+00
   0.998468E+00   0.118246E+00
   0.998467E+00   0.121908E+00
   0.998466E+00   0.125684E+00
   0.998465E+00   0.129576E+00
   0.998464E+00   0.133589E+00
   0.998463E+00   0.137726E+00
   0.998462E+00   0.141992E+00
   0.998460E+00   0.146389E+00
   0.998459E+00   0.150923E+00
   0.998458E+00   0.155597E+00
   0.998457E+00   0.160415E+00
   0.998455E+00   0.165383E+00
   0.998454E+00   0.170505E+00
   0.998453E+00   0.175786E+00
   0.998451E+00   0.181230E+00
   0.998450E+00   0.186843E+00
   0.998449E+00   0.192629E+00
   0.998447E+00   0.198595E+00
   0.998446E+00   0.204745E+00
   0.998444E+00   0.211086E+00
   0.998442E+00   0.217623E+00
   0.998441E+00   0.224363E+00
   0.998439E+00   0.231311E+00
   0.998438E+00   0.238475E+00
   0.998436E+00   0.245860E+00
   0.998434E+00   0.253475E+00
   0.998432E+00   0.261325E+00
   0.998430E+00   0.269418E+00
   0.998428E+00   0.277762E+00
   0.998427E+00   0.286364E+00
   0.998425E+00   0.295232E+00
   0.998422E+00   0.304376E+00
   0.998420E+00   0.313802E+00
   0.998418E+00   0.323521E+00
   0.998416E+00   0.333540E+00
   0.998414E+00   0.343869E+00
   0.998412E+00   0.354519E+00
   0.998410E+00   0.365498E+00
   0.998407E+00   0.376818E+00
   0.998405E+00   0.388488E+00
   0.998403E+00   0.400519E+00
   0.998400E+00   0.412923E+00
   0.998398E+00   0.425711E+00
   0.998395E+00   0.438895E+00
   0.998392E+00   0.452488E+00
   0.998390E+00   0.466501E+00
   0.998387E+00   0.480948E+00
   0.998384E+00   0.495843E+00
   0.998381E+00   0.511199E+00
   0.998378E+00   0.527031E+00
   0.998375E+00   0.543353E+00
   0.998372E+00   0.560180E+00
   0.998369E+00   0.577529E+00
   0.998366E+00   0.595415E+00
   0.998362E+00   0.613855E+00
   0.998359E+00   0.632866E+00
   0.998355E+00   0.652465E+00
   0.998351E+00   0.672672E+00
   0.998347E+00   0.693504E+00
   0.998343E+00   0.714982E+00
   0.998338E+00   0.737125E+00
   0.998334E+00   0.759953E+00
   0.998329E+00   0.783489E+00
   0.998324E+00   0.807753E+00
   0.998318E+00   0.832769E+00
   0.998312E+00   0.858560E+00
   0.998305E+00   0.885149E+00
   0.998299E+00   0.912562E+00
   0.998286E+00   0.940824E+00
   0.998286E+00   0.969961E+00
   0.998298E+00   0.100000E+01
zone,t="x=     1.90334"
   0.000000E+00   0.000000E+00
   0.305089E-02   0.500000E-06
   0.610462E-02   0.100047E-05
   0.916402E-02   0.150186E-05
   0.122319E-01   0.200465E-05
   0.153112E-01   0.250931E-05
   0.184047E-01   0.301630E-05
   0.215153E-01   0.352610E-05
   0.246458E-01   0.403918E-05
   0.277991E-01   0.455602E-05
   0.309780E-01   0.507709E-05
   0.341855E-01   0.560289E-05
   0.374244E-01   0.613390E-05
   0.406975E-01   0.667062E-05
   0.440078E-01   0.721354E-05
   0.473581E-01   0.776318E-05
   0.507513E-01   0.832003E-05
   0.541903E-01   0.888463E-05
   0.576778E-01   0.945749E-05
   0.612167E-01   0.100392E-04
   0.648098E-01   0.106302E-04
   0.684598E-01   0.112310E-04
   0.721695E-01   0.118424E-04
   0.759415E-01   0.124647E-04
   0.797784E-01   0.130987E-04
   0.836827E-01   0.137448E-04
   0.876569E-01   0.144037E-04
   0.917032E-01   0.150761E-04
   0.958238E-01   0.157624E-04
   0.100021E+00   0.164634E-04
   0.104296E+00   0.171798E-04
   0.108651E+00   0.179121E-04
   0.113087E+00   0.186610E-04
   0.117606E+00   0.194274E-04
   0.122209E+00   0.202118E-04
   0.126896E+00   0.210150E-04
   0.131667E+00   0.218378E-04
   0.136522E+00   0.226808E-04
   0.141462E+00   0.235450E-04
   0.146485E+00   0.244311E-04
   0.151589E+00   0.253399E-04
   0.156774E+00   0.262723E-04
   0.162037E+00   0.272291E-04
   0.167375E+00   0.282113E-04
   0.172785E+00   0.292197E-04
   0.178263E+00   0.302553E-04
   0.183805E+00   0.313190E-04
   0.189407E+00   0.324119E-04
   0.195062E+00   0.335349E-04
   0.200766E+00   0.346891E-04
   0.206512E+00   0.358756E-04
   0.212294E+00   0.370955E-04
   0.218105E+00   0.383499E-04
   0.223938E+00   0.396399E-04
   0.229786E+00   0.409669E-04
   0.235642E+00   0.423319E-04
   0.241497E+00   0.437363E-04
   0.247346E+00   0.451814E-04
   0.253180E+00   0.466686E-04
   0.258993E+00   0.481991E-04
   0.264778E+00   0.497746E-04
   0.270529E+00   0.513963E-04
   0.276239E+00   0.530658E-04
   0.281905E+00   0.547847E-04
   0.287519E+00   0.565545E-04
   0.293079E+00   0.583770E-04
   0.298579E+00   0.602538E-04
   0.304018E+00   0.621866E-04
   0.309391E+00   0.641773E-04
   0.314697E+00   0.662277E-04
   0.319933E+00   0.683397E-04
   0.325099E+00   0.705153E-04
   0.330194E+00   0.727565E-04
   0.335217E+00   0.750654E-04
   0.340169E+00   0.774441E-04
   0.345049E+00   0.798948E-04
   0.349859E+00   0.824199E-04
   0.354598E+00   0.850216E-04
   0.359269E+00   0.877025E-04
   0.363873E+00   0.904649E-04
   0.368411E+00   0.933115E-04
   0.372885E+00   0.962449E-04
   0.377297E+00   0.992679E-04
   0.381647E+00   0.102383E-03
   0.385939E+00   0.105594E-03
   0.390174E+00   0.108903E-03
   0.394354E+00   0.112313E-03
   0.398480E+00   0.115827E-03
   0.402555E+00   0.119450E-03
   0.406580E+00   0.123183E-03
   0.410558E+00   0.127031E-03
   0.414489E+00   0.130997E-03
   0.418376E+00   0.135085E-03
   0.422219E+00   0.139299E-03
   0.426022E+00   0.143643E-03
   0.429785E+00   0.148120E-03
   0.433510E+00   0.152734E-03
   0.437197E+00   0.157491E-03
   0.440849E+00   0.162395E-03
   0.444467E+00   0.167449E-03
   0.448052E+00   0.172659E-03
   0.451605E+00   0.178030E-03
   0.455128E+00   0.183567E-03
   0.458621E+00   0.189274E-03
   0.462085E+00   0.195157E-03
   0.465522E+00   0.201222E-03
   0.468932E+00   0.207474E-03
   0.472317E+00   0.213920E-03
   0.475677E+00   0.220564E-03
   0.479013E+00   0.227413E-03
   0.482326E+00   0.234474E-03
   0.485617E+00   0.241753E-03
   0.488886E+00   0.249257E-03
   0.492135E+00   0.256993E-03
   0.495363E+00   0.264968E-03
   0.498572E+00   0.273189E-03
   0.501762E+00   0.281665E-03
   0.504934E+00   0.290402E-03
   0.508088E+00   0.299410E-03
   0.511226E+00   0.308696E-03
   0.514347E+00   0.318270E-03
   0.517452E+00   0.328139E-03
   0.520542E+00   0.338314E-03
   0.523616E+00   0.348804E-03
   0.526677E+00   0.359618E-03
   0.529723E+00   0.370767E-03
   0.532756E+00   0.382260E-03
   0.535776E+00   0.394109E-03
   0.538783E+00   0.406325E-03
   0.541778E+00   0.418919E-03
   0.544761E+00   0.431903E-03
   0.547733E+00   0.445288E-03
   0.550693E+00   0.459088E-03
   0.553643E+00   0.473314E-03
   0.556582E+00   0.487981E-03
   0.559511E+00   0.503102E-03
   0.562431E+00   0.518692E-03
   0.565341E+00   0.534763E-03
   0.568242E+00   0.551332E-03
   0.571133E+00   0.568414E-03
   0.574017E+00   0.586025E-03
   0.576892E+00   0.604181E-03
   0.579759E+00   0.622899E-03
   0.582619E+00   0.642197E-03
   0.585470E+00   0.662092E-03
   0.588315E+00   0.682603E-03
   0.591153E+00   0.703749E-03
   0.593984E+00   0.725550E-03
   0.596808E+00   0.748025E-03
   0.599627E+00   0.771197E-03
   0.602439E+00   0.795086E-03
   0.605245E+00   0.819715E-03
   0.608046E+00   0.845106E-03
   0.610842E+00   0.871283E-03
   0.613632E+00   0.898271E-03
   0.616417E+00   0.926095E-03
   0.619198E+00   0.954780E-03
   0.621974E+00   0.984354E-03
   0.624745E+00   0.101484E-02
   0.627513E+00   0.104628E-02
   0.630277E+00   0.107868E-02
   0.633037E+00   0.111209E-02
   0.635793E+00   0.114654E-02
   0.638546E+00   0.118205E-02
   0.641296E+00   0.121866E-02
   0.644042E+00   0.125641E-02
   0.646786E+00   0.129532E-02
   0.649528E+00   0.133544E-02
   0.652267E+00   0.137680E-02
   0.655004E+00   0.141944E-02
   0.657739E+00   0.146340E-02
   0.660472E+00   0.150873E-02
   0.663203E+00   0.155546E-02
   0.665933E+00   0.160363E-02
   0.668662E+00   0.165330E-02
   0.671390E+00   0.170450E-02
   0.674116E+00   0.175729E-02
   0.676843E+00   0.181172E-02
   0.679569E+00   0.186783E-02
   0.682295E+00   0.192568E-02
   0.685021E+00   0.198532E-02
   0.687747E+00   0.204680E-02
   0.690474E+00   0.211019E-02
   0.693201E+00   0.217555E-02
   0.695930E+00   0.224293E-02
   0.698660E+00   0.231239E-02
   0.701391E+00   0.238401E-02
   0.704125E+00   0.245784E-02
   0.706860E+00   0.253396E-02
   0.709598E+00   0.261244E-02
   0.712339E+00   0.269335E-02
   0.715083E+00   0.277676E-02
   0.717830E+00   0.286276E-02
   0.720581E+00   0.295142E-02
   0.723336E+00   0.304282E-02
   0.726095E+00   0.313706E-02
   0.728860E+00   0.323421E-02
   0.731629E+00   0.333438E-02
   0.734405E+00   0.343764E-02
   0.737187E+00   0.354411E-02
   0.739975E+00   0.365387E-02
   0.742771E+00   0.376703E-02
   0.745575E+00   0.388369E-02
   0.748386E+00   0.400397E-02
   0.751207E+00   0.412797E-02
   0.754037E+00   0.425582E-02
   0.756878E+00   0.438762E-02
   0.759729E+00   0.452350E-02
   0.762592E+00   0.466359E-02
   0.765467E+00   0.480803E-02
   0.768355E+00   0.495693E-02
   0.771258E+00   0.511044E-02
   0.774176E+00   0.526871E-02
   0.777110E+00   0.543189E-02
   0.780061E+00   0.560011E-02
   0.783030E+00   0.577355E-02
   0.786019E+00   0.595235E-02
   0.789028E+00   0.613669E-02
   0.792060E+00   0.632675E-02
   0.795115E+00   0.652268E-02
   0.798195E+00   0.672469E-02
   0.801303E+00   0.693295E-02
   0.804439E+00   0.714766E-02
   0.807606E+00   0.736903E-02
   0.810805E+00   0.759724E-02
   0.814040E+00   0.783253E-02
   0.817313E+00   0.807510E-02
   0.820626E+00   0.832518E-02
   0.823983E+00   0.858301E-02
   0.827386E+00   0.884883E-02
   0.830840E+00   0.912287E-02
   0.834348E+00   0.940540E-02
   0.837914E+00   0.969669E-02
   0.841545E+00   0.999699E-02
   0.845244E+00   0.103066E-01
   0.849019E+00   0.106258E-01
   0.852876E+00   0.109549E-01
   0.856825E+00   0.112941E-01
   0.860876E+00   0.116439E-01
   0.865041E+00   0.120045E-01
   0.869341E+00   0.123763E-01
   0.873802E+00   0.127596E-01
   0.878462E+00   0.131547E-01
   0.883372E+00   0.135621E-01
   0.888593E+00   0.139822E-01
   0.894174E+00   0.144152E-01
   0.900128E+00   0.148616E-01
   0.906413E+00   0.153219E-01
   0.912939E+00   0.157964E-01
   0.919596E+00   0.162856E-01
   0.926287E+00   0.167900E-01
   0.932943E+00   0.173099E-01
   0.939521E+00   0.178460E-01
   0.945947E+00   0.183987E-01
   0.952106E+00   0.189685E-01
   0.957975E+00   0.195560E-01
   0.963637E+00   0.201616E-01
   0.969180E+00   0.207860E-01
   0.974658E+00   0.214297E-01
   0.980080E+00   0.220934E-01
   0.985388E+00   0.227776E-01
   0.990406E+00   0.234831E-01
   0.994720E+00   0.242103E-01
   0.997757E+00   0.249601E-01
   0.999301E+00   0.257331E-01
   0.999797E+00   0.265301E-01
   0.999882E+00   0.273517E-01
   0.999887E+00   0.281988E-01
   0.999886E+00   0.290721E-01
   0.999886E+00   0.299724E-01
   0.999885E+00   0.309007E-01
   0.999885E+00   0.318576E-01
   0.999885E+00   0.328443E-01
   0.999885E+00   0.338614E-01
   0.999884E+00   0.349101E-01
   0.999884E+00   0.359913E-01
   0.999884E+00   0.371059E-01
   0.999883E+00   0.382551E-01
   0.999883E+00   0.394398E-01
   0.999882E+00   0.406613E-01
   0.999882E+00   0.419205E-01
   0.999881E+00   0.432188E-01
   0.999881E+00   0.445573E-01
   0.999880E+00   0.459372E-01
   0.999880E+00   0.473599E-01
   0.999879E+00   0.488266E-01
   0.999879E+00   0.503387E-01
   0.999878E+00   0.518977E-01
   0.999877E+00   0.535049E-01
   0.999877E+00   0.551620E-01
   0.999876E+00   0.568703E-01
   0.999875E+00   0.586316E-01
   0.999875E+00   0.604474E-01
   0.999874E+00   0.623194E-01
   0.999873E+00   0.642494E-01
   0.999872E+00   0.662392E-01
   0.999871E+00   0.682906E-01
   0.999870E+00   0.704056E-01
   0.999869E+00   0.725860E-01
   0.999868E+00   0.748340E-01
   0.999867E+00   0.771516E-01
   0.999866E+00   0.795409E-01
   0.999865E+00   0.820043E-01
   0.999864E+00   0.845439E-01
   0.999863E+00   0.871622E-01
   0.999861E+00   0.898616E-01
   0.999860E+00   0.926446E-01
   0.999859E+00   0.955138E-01
   0.999858E+00   0.984718E-01
   0.999856E+00   0.101521E+00
   0.999855E+00   0.104666E+00
   0.999853E+00   0.107907E+00
   0.999852E+00   0.111249E+00
   0.999850E+00   0.114694E+00
   0.999849E+00   0.118246E+00
   0.999847E+00   0.121908E+00
   0.999846E+00   0.125684E+00
   0.999844E+00   0.129576E+00
   0.999843E+00   0.133589E+00
   0.999841E+00   0.137726E+00
   0.999840E+00   0.141992E+00
   0.999838E+00   0.146389E+00
   0.999837E+00   0.150923E+00
   0.999835E+00   0.155597E+00
   0.999833E+00   0.160415E+00
   0.999832E+00   0.165383E+00
   0.999830E+00   0.170505E+00
   0.999829E+00   0.175786E+00
   0.999827E+00   0.181230E+00
   0.999826E+00   0.186843E+00
   0.999824E+00   0.192629E+00
   0.999823E+00   0.198595E+00
   0.999821E+00   0.204745E+00
   0.999820E+00   0.211086E+00
   0.999818E+00   0.217623E+00
   0.999817E+00   0.224363E+00
   0.999816E+00   0.231311E+00
   0.999814E+00   0.238475E+00
   0.999813E+00   0.245860E+00
   0.999812E+00   0.253475E+00
   0.999810E+00   0.261325E+00
   0.999809E+00   0.269418E+00
   0.999808E+00   0.277762E+00
   0.999806E+00   0.286364E+00
   0.999805E+00   0.295232E+00
   0.999804E+00   0.304376E+00
   0.999803E+00   0.313802E+00
   0.999802E+00   0.323521E+00
   0.999800E+00   0.333540E+00
   0.999799E+00   0.343869E+00
   0.999798E+00   0.354519E+00
   0.999797E+00   0.365498E+00
   0.999796E+00   0.376818E+00
   0.999795E+00   0.388488E+00
   0.999794E+00   0.400519E+00
   0.999793E+00   0.412923E+00
   0.999791E+00   0.425711E+00
   0.999790E+00   0.438895E+00
   0.999789E+00   0.452488E+00
   0.999788E+00   0.466501E+00
   0.999787E+00   0.480948E+00
   0.999785E+00   0.495843E+00
   0.999784E+00   0.511199E+00
   0.999783E+00   0.527031E+00
   0.999782E+00   0.543353E+00
   0.999780E+00   0.560180E+00
   0.999779E+00   0.577529E+00
   0.999777E+00   0.595415E+00
   0.999776E+00   0.613855E+00
   0.999774E+00   0.632866E+00
   0.999773E+00   0.652465E+00
   0.999771E+00   0.672672E+00
   0.999769E+00   0.693504E+00
   0.999767E+00   0.714982E+00
   0.999764E+00   0.737125E+00
   0.999762E+00   0.759953E+00
   0.999759E+00   0.783489E+00
   0.999756E+00   0.807753E+00
   0.999752E+00   0.832769E+00
   0.999748E+00   0.858560E+00
   0.999742E+00   0.885149E+00
   0.999737E+00   0.912562E+00
   0.999723E+00   0.940824E+00
   0.999726E+00   0.969961E+00
   0.999741E+00   0.100000E+01
