variables="log(y+)","u+"
zone,t="x=     0.97008"
  -0.104165E+01   0.908548E-01
  -0.740420E+00   0.181794E+00
  -0.563993E+00   0.272902E+00
  -0.438583E+00   0.364264E+00
  -0.341068E+00   0.455965E+00
  -0.261147E+00   0.548088E+00
  -0.193327E+00   0.640719E+00
  -0.134329E+00   0.733944E+00
  -0.820368E-01   0.827846E+00
  -0.350070E-01   0.922511E+00
   0.779004E-02   0.101802E+01
   0.471147E-01   0.111447E+01
   0.835440E-01   0.121193E+01
   0.117526E+00   0.131050E+01
   0.149417E+00   0.141025E+01
   0.179503E+00   0.151127E+01
   0.208017E+00   0.161365E+01
   0.235154E+00   0.171746E+01
   0.261075E+00   0.182279E+01
   0.285917E+00   0.192972E+01
   0.309798E+00   0.203833E+01
   0.332817E+00   0.214869E+01
   0.355061E+00   0.226088E+01
   0.376605E+00   0.237498E+01
   0.397517E+00   0.249104E+01
   0.417853E+00   0.260915E+01
   0.437666E+00   0.272935E+01
   0.457000E+00   0.285171E+01
   0.475898E+00   0.297628E+01
   0.494395E+00   0.310311E+01
   0.512523E+00   0.323224E+01
   0.530314E+00   0.336370E+01
   0.547792E+00   0.349751E+01
   0.564982E+00   0.363368E+01
   0.581907E+00   0.377223E+01
   0.598586E+00   0.391316E+01
   0.615037E+00   0.405643E+01
   0.631277E+00   0.420202E+01
   0.647321E+00   0.434990E+01
   0.663183E+00   0.450000E+01
   0.678876E+00   0.465225E+01
   0.694411E+00   0.480658E+01
   0.709801E+00   0.496287E+01
   0.725053E+00   0.512102E+01
   0.740179E+00   0.528091E+01
   0.755186E+00   0.544237E+01
   0.770082E+00   0.560527E+01
   0.784875E+00   0.576943E+01
   0.799571E+00   0.593466E+01
   0.814177E+00   0.610079E+01
   0.828699E+00   0.626762E+01
   0.843141E+00   0.643493E+01
   0.857511E+00   0.660253E+01
   0.871810E+00   0.677020E+01
   0.886045E+00   0.693773E+01
   0.900220E+00   0.710492E+01
   0.914338E+00   0.727157E+01
   0.928402E+00   0.743747E+01
   0.942417E+00   0.760245E+01
   0.956385E+00   0.776633E+01
   0.970309E+00   0.792895E+01
   0.984192E+00   0.809016E+01
   0.998037E+00   0.824982E+01
   0.101185E+01   0.840782E+01
   0.102562E+01   0.856406E+01
   0.103936E+01   0.871844E+01
   0.105307E+01   0.887090E+01
   0.106676E+01   0.902138E+01
   0.108042E+01   0.916984E+01
   0.109405E+01   0.931625E+01
   0.110766E+01   0.946059E+01
   0.112125E+01   0.960287E+01
   0.113482E+01   0.974308E+01
   0.114837E+01   0.988125E+01
   0.116190E+01   0.100174E+02
   0.117541E+01   0.101515E+02
   0.118891E+01   0.102837E+02
   0.120239E+01   0.104140E+02
   0.121586E+01   0.105424E+02
   0.122931E+01   0.106690E+02
   0.124276E+01   0.107939E+02
   0.125619E+01   0.109170E+02
   0.126961E+01   0.110385E+02
   0.128302E+01   0.111583E+02
   0.129642E+01   0.112766E+02
   0.130981E+01   0.113934E+02
   0.132319E+01   0.115088E+02
   0.133656E+01   0.116227E+02
   0.134993E+01   0.117353E+02
   0.136329E+01   0.118466E+02
   0.137664E+01   0.119567E+02
   0.138999E+01   0.120656E+02
   0.140333E+01   0.121733E+02
   0.141666E+01   0.122799E+02
   0.142999E+01   0.123854E+02
   0.144331E+01   0.124899E+02
   0.145663E+01   0.125934E+02
   0.146995E+01   0.126960E+02
   0.148326E+01   0.127976E+02
   0.149657E+01   0.128983E+02
   0.150987E+01   0.129982E+02
   0.152317E+01   0.130972E+02
   0.153647E+01   0.131955E+02
   0.154976E+01   0.132929E+02
   0.156305E+01   0.133897E+02
   0.157634E+01   0.134857E+02
   0.158963E+01   0.135811E+02
   0.160291E+01   0.136757E+02
   0.161619E+01   0.137698E+02
   0.162947E+01   0.138632E+02
   0.164275E+01   0.139560E+02
   0.165603E+01   0.140482E+02
   0.166930E+01   0.141399E+02
   0.168257E+01   0.142310E+02
   0.169584E+01   0.143216E+02
   0.170911E+01   0.144117E+02
   0.172238E+01   0.145014E+02
   0.173564E+01   0.145905E+02
   0.174891E+01   0.146792E+02
   0.176217E+01   0.147675E+02
   0.177544E+01   0.148553E+02
   0.178870E+01   0.149428E+02
   0.180196E+01   0.150298E+02
   0.181522E+01   0.151164E+02
   0.182848E+01   0.152027E+02
   0.184174E+01   0.152886E+02
   0.185499E+01   0.153742E+02
   0.186825E+01   0.154595E+02
   0.188151E+01   0.155444E+02
   0.189476E+01   0.156290E+02
   0.190802E+01   0.157133E+02
   0.192127E+01   0.157973E+02
   0.193453E+01   0.158811E+02
   0.194778E+01   0.159645E+02
   0.196103E+01   0.160478E+02
   0.197429E+01   0.161307E+02
   0.198754E+01   0.162135E+02
   0.200079E+01   0.162959E+02
   0.201404E+01   0.163782E+02
   0.202729E+01   0.164603E+02
   0.204054E+01   0.165421E+02
   0.205380E+01   0.166238E+02
   0.206705E+01   0.167053E+02
   0.208030E+01   0.167866E+02
   0.209355E+01   0.168677E+02
   0.210680E+01   0.169486E+02
   0.212004E+01   0.170294E+02
   0.213329E+01   0.171101E+02
   0.214654E+01   0.171906E+02
   0.215979E+01   0.172710E+02
   0.217304E+01   0.173512E+02
   0.218629E+01   0.174314E+02
   0.219954E+01   0.175114E+02
   0.221279E+01   0.175913E+02
   0.222603E+01   0.176712E+02
   0.223928E+01   0.177509E+02
   0.225253E+01   0.178306E+02
   0.226578E+01   0.179102E+02
   0.227902E+01   0.179898E+02
   0.229227E+01   0.180692E+02
   0.230552E+01   0.181487E+02
   0.231877E+01   0.182281E+02
   0.233201E+01   0.183075E+02
   0.234526E+01   0.183868E+02
   0.235851E+01   0.184662E+02
   0.237175E+01   0.185455E+02
   0.238500E+01   0.186249E+02
   0.239825E+01   0.187043E+02
   0.241150E+01   0.187836E+02
   0.242474E+01   0.188631E+02
   0.243799E+01   0.189426E+02
   0.245124E+01   0.190221E+02
   0.246448E+01   0.191017E+02
   0.247773E+01   0.191814E+02
   0.249098E+01   0.192612E+02
   0.250422E+01   0.193410E+02
   0.251747E+01   0.194210E+02
   0.253071E+01   0.195012E+02
   0.254396E+01   0.195814E+02
   0.255721E+01   0.196618E+02
   0.257045E+01   0.197425E+02
   0.258370E+01   0.198232E+02
   0.259695E+01   0.199042E+02
   0.261019E+01   0.199855E+02
   0.262344E+01   0.200669E+02
   0.263669E+01   0.201487E+02
   0.264993E+01   0.202307E+02
   0.266318E+01   0.203130E+02
   0.267642E+01   0.203956E+02
   0.268967E+01   0.204786E+02
   0.270292E+01   0.205620E+02
   0.271616E+01   0.206458E+02
   0.272941E+01   0.207300E+02
   0.274265E+01   0.208147E+02
   0.275590E+01   0.208999E+02
   0.276915E+01   0.209856E+02
   0.278239E+01   0.210719E+02
   0.279564E+01   0.211588E+02
   0.280888E+01   0.212463E+02
   0.282213E+01   0.213346E+02
   0.283538E+01   0.214235E+02
   0.284862E+01   0.215133E+02
   0.286187E+01   0.216040E+02
   0.287511E+01   0.216955E+02
   0.288836E+01   0.217881E+02
   0.290161E+01   0.218817E+02
   0.291485E+01   0.219764E+02
   0.292810E+01   0.220724E+02
   0.294134E+01   0.221696E+02
   0.295459E+01   0.222683E+02
   0.296784E+01   0.223685E+02
   0.298108E+01   0.224703E+02
   0.299433E+01   0.225740E+02
   0.300757E+01   0.226796E+02
   0.302082E+01   0.227872E+02
   0.303407E+01   0.228973E+02
   0.304731E+01   0.230098E+02
   0.306056E+01   0.231253E+02
   0.307380E+01   0.232439E+02
   0.308705E+01   0.233663E+02
   0.310030E+01   0.234932E+02
   0.311354E+01   0.236255E+02
   0.312679E+01   0.237646E+02
   0.314003E+01   0.239121E+02
   0.315328E+01   0.240696E+02
   0.316653E+01   0.242375E+02
   0.317977E+01   0.244150E+02
   0.319302E+01   0.246000E+02
   0.320626E+01   0.247894E+02
   0.321951E+01   0.249806E+02
   0.323276E+01   0.251714E+02
   0.324600E+01   0.253605E+02
   0.325925E+01   0.255459E+02
   0.327249E+01   0.257239E+02
   0.328574E+01   0.258930E+02
   0.329898E+01   0.260555E+02
   0.331223E+01   0.262139E+02
   0.332548E+01   0.263698E+02
   0.333872E+01   0.265234E+02
   0.335197E+01   0.266729E+02
   0.336521E+01   0.268140E+02
   0.337846E+01   0.269381E+02
   0.339171E+01   0.270331E+02
   0.340495E+01   0.270908E+02
   0.341820E+01   0.271158E+02
   0.343144E+01   0.271228E+02
   0.344469E+01   0.271238E+02
   0.345794E+01   0.271239E+02
   0.347118E+01   0.271239E+02
   0.348443E+01   0.271239E+02
   0.349767E+01   0.271239E+02
   0.351092E+01   0.271238E+02
   0.352417E+01   0.271238E+02
   0.353741E+01   0.271238E+02
   0.355066E+01   0.271238E+02
   0.356390E+01   0.271238E+02
   0.357715E+01   0.271238E+02
   0.359039E+01   0.271238E+02
   0.360364E+01   0.271238E+02
   0.361689E+01   0.271238E+02
   0.363013E+01   0.271238E+02
   0.364338E+01   0.271238E+02
   0.365662E+01   0.271238E+02
   0.366987E+01   0.271238E+02
   0.368312E+01   0.271238E+02
   0.369636E+01   0.271238E+02
   0.370961E+01   0.271238E+02
   0.372285E+01   0.271238E+02
   0.373610E+01   0.271238E+02
   0.374935E+01   0.271237E+02
   0.376259E+01   0.271237E+02
   0.377584E+01   0.271237E+02
   0.378908E+01   0.271237E+02
   0.380233E+01   0.271237E+02
   0.381557E+01   0.271237E+02
   0.382882E+01   0.271237E+02
   0.384207E+01   0.271237E+02
   0.385531E+01   0.271237E+02
   0.386856E+01   0.271237E+02
   0.388180E+01   0.271237E+02
   0.389505E+01   0.271236E+02
   0.390830E+01   0.271236E+02
   0.392154E+01   0.271236E+02
   0.393479E+01   0.271236E+02
   0.394803E+01   0.271236E+02
   0.396128E+01   0.271236E+02
   0.397453E+01   0.271236E+02
   0.398777E+01   0.271236E+02
   0.400102E+01   0.271236E+02
   0.401426E+01   0.271235E+02
   0.402751E+01   0.271235E+02
   0.404076E+01   0.271235E+02
   0.405400E+01   0.271235E+02
   0.406725E+01   0.271235E+02
   0.408049E+01   0.271235E+02
   0.409374E+01   0.271235E+02
   0.410698E+01   0.271234E+02
   0.412023E+01   0.271234E+02
   0.413348E+01   0.271234E+02
   0.414672E+01   0.271234E+02
   0.415997E+01   0.271234E+02
   0.417321E+01   0.271233E+02
   0.418646E+01   0.271233E+02
   0.419971E+01   0.271233E+02
   0.421295E+01   0.271233E+02
   0.422620E+01   0.271233E+02
   0.423944E+01   0.271232E+02
   0.425269E+01   0.271232E+02
   0.426594E+01   0.271232E+02
   0.427918E+01   0.271232E+02
   0.429243E+01   0.271232E+02
   0.430567E+01   0.271231E+02
   0.431892E+01   0.271231E+02
   0.433216E+01   0.271231E+02
   0.434541E+01   0.271230E+02
   0.435866E+01   0.271230E+02
   0.437190E+01   0.271230E+02
   0.438515E+01   0.271230E+02
   0.439839E+01   0.271229E+02
   0.441164E+01   0.271229E+02
   0.442489E+01   0.271229E+02
   0.443813E+01   0.271228E+02
   0.445138E+01   0.271228E+02
   0.446462E+01   0.271228E+02
   0.447787E+01   0.271227E+02
   0.449112E+01   0.271227E+02
   0.450436E+01   0.271227E+02
   0.451761E+01   0.271226E+02
   0.453085E+01   0.271226E+02
   0.454410E+01   0.271225E+02
   0.455735E+01   0.271225E+02
   0.457059E+01   0.271225E+02
   0.458384E+01   0.271224E+02
   0.459708E+01   0.271224E+02
   0.461033E+01   0.271223E+02
   0.462357E+01   0.271223E+02
   0.463682E+01   0.271222E+02
   0.465007E+01   0.271222E+02
   0.466331E+01   0.271222E+02
   0.467656E+01   0.271221E+02
   0.468980E+01   0.271221E+02
   0.470305E+01   0.271220E+02
   0.471630E+01   0.271220E+02
   0.472954E+01   0.271219E+02
   0.474279E+01   0.271218E+02
   0.475603E+01   0.271218E+02
   0.476928E+01   0.271217E+02
   0.478253E+01   0.271217E+02
   0.479577E+01   0.271216E+02
   0.480902E+01   0.271216E+02
   0.482226E+01   0.271215E+02
   0.483551E+01   0.271214E+02
   0.484875E+01   0.271214E+02
   0.486200E+01   0.271213E+02
   0.487525E+01   0.271212E+02
   0.488849E+01   0.271212E+02
   0.490174E+01   0.271211E+02
   0.491498E+01   0.271210E+02
   0.492823E+01   0.271210E+02
   0.494148E+01   0.271209E+02
   0.495472E+01   0.271208E+02
   0.496797E+01   0.271207E+02
   0.498121E+01   0.271206E+02
   0.499446E+01   0.271206E+02
   0.500771E+01   0.271205E+02
   0.502095E+01   0.271204E+02
   0.503420E+01   0.271203E+02
   0.504744E+01   0.271202E+02
   0.506069E+01   0.271201E+02
   0.507394E+01   0.271200E+02
   0.508718E+01   0.271199E+02
   0.510043E+01   0.271198E+02
   0.511367E+01   0.271197E+02
   0.512692E+01   0.271196E+02
   0.514016E+01   0.271194E+02
   0.515341E+01   0.271193E+02
   0.516666E+01   0.271192E+02
   0.517990E+01   0.271190E+02
   0.519315E+01   0.271188E+02
   0.520639E+01   0.271186E+02
   0.521964E+01   0.271185E+02
   0.523289E+01   0.271181E+02
   0.524613E+01   0.271181E+02
   0.525938E+01   0.271185E+02
zone,t="x=     1.90334"
  -0.106164E+01   0.867688E-01
  -0.760405E+00   0.173618E+00
  -0.583977E+00   0.260629E+00
  -0.458567E+00   0.347882E+00
  -0.361052E+00   0.435458E+00
  -0.281131E+00   0.523439E+00
  -0.213312E+00   0.611905E+00
  -0.154313E+00   0.700938E+00
  -0.102021E+00   0.790619E+00
  -0.549914E-01   0.881029E+00
  -0.121943E-01   0.972251E+00
   0.271303E-01   0.106437E+01
   0.635597E-01   0.115746E+01
   0.975421E-01   0.125160E+01
   0.129433E+00   0.134689E+01
   0.159518E+00   0.144339E+01
   0.188033E+00   0.154120E+01
   0.215169E+00   0.164038E+01
   0.241090E+00   0.174103E+01
   0.265933E+00   0.184322E+01
   0.289813E+00   0.194703E+01
   0.312832E+00   0.205253E+01
   0.335076E+00   0.215981E+01
   0.356621E+00   0.226893E+01
   0.377532E+00   0.237998E+01
   0.397869E+00   0.249300E+01
   0.417681E+00   0.260808E+01
   0.437016E+00   0.272527E+01
   0.455914E+00   0.284464E+01
   0.474410E+00   0.296622E+01
   0.492539E+00   0.309009E+01
   0.510329E+00   0.321626E+01
   0.527808E+00   0.334478E+01
   0.544998E+00   0.347568E+01
   0.561923E+00   0.360897E+01
   0.578601E+00   0.374466E+01
   0.595053E+00   0.388276E+01
   0.611292E+00   0.402324E+01
   0.627337E+00   0.416609E+01
   0.643198E+00   0.431127E+01
   0.658891E+00   0.445873E+01
   0.674427E+00   0.460840E+01
   0.689816E+00   0.476022E+01
   0.705069E+00   0.491408E+01
   0.720194E+00   0.506988E+01
   0.735201E+00   0.522751E+01
   0.750098E+00   0.538682E+01
   0.764890E+00   0.554766E+01
   0.779587E+00   0.570988E+01
   0.794193E+00   0.587331E+01
   0.808714E+00   0.603775E+01
   0.823157E+00   0.620302E+01
   0.837526E+00   0.636891E+01
   0.851826E+00   0.653523E+01
   0.866061E+00   0.670176E+01
   0.880236E+00   0.686829E+01
   0.894353E+00   0.703462E+01
   0.908418E+00   0.720055E+01
   0.922433E+00   0.736587E+01
   0.936401E+00   0.753040E+01
   0.950325E+00   0.769396E+01
   0.964208E+00   0.785638E+01
   0.978052E+00   0.801750E+01
   0.991861E+00   0.817718E+01
   0.100564E+01   0.833529E+01
   0.101938E+01   0.849173E+01
   0.103309E+01   0.864640E+01
   0.104677E+01   0.879922E+01
   0.106043E+01   0.895012E+01
   0.107407E+01   0.909905E+01
   0.108768E+01   0.924597E+01
   0.110127E+01   0.939087E+01
   0.111483E+01   0.953374E+01
   0.112838E+01   0.967456E+01
   0.114191E+01   0.981335E+01
   0.115543E+01   0.995014E+01
   0.116892E+01   0.100849E+02
   0.118241E+01   0.102178E+02
   0.119587E+01   0.103487E+02
   0.120933E+01   0.104778E+02
   0.122277E+01   0.106050E+02
   0.123620E+01   0.107305E+02
   0.124962E+01   0.108542E+02
   0.126303E+01   0.109763E+02
   0.127643E+01   0.110967E+02
   0.128982E+01   0.112156E+02
   0.130320E+01   0.113330E+02
   0.131658E+01   0.114488E+02
   0.132994E+01   0.115633E+02
   0.134330E+01   0.116764E+02
   0.135666E+01   0.117882E+02
   0.137000E+01   0.118988E+02
   0.138334E+01   0.120081E+02
   0.139668E+01   0.121163E+02
   0.141001E+01   0.122233E+02
   0.142333E+01   0.123292E+02
   0.143665E+01   0.124341E+02
   0.144997E+01   0.125380E+02
   0.146328E+01   0.126409E+02
   0.147658E+01   0.127428E+02
   0.148989E+01   0.128439E+02
   0.150319E+01   0.129440E+02
   0.151648E+01   0.130434E+02
   0.152978E+01   0.131419E+02
   0.154307E+01   0.132397E+02
   0.155636E+01   0.133366E+02
   0.156964E+01   0.134329E+02
   0.158293E+01   0.135285E+02
   0.159621E+01   0.136233E+02
   0.160949E+01   0.137176E+02
   0.162277E+01   0.138112E+02
   0.163604E+01   0.139041E+02
   0.164931E+01   0.139965E+02
   0.166259E+01   0.140883E+02
   0.167586E+01   0.141796E+02
   0.168913E+01   0.142703E+02
   0.170239E+01   0.143606E+02
   0.171566E+01   0.144503E+02
   0.172892E+01   0.145395E+02
   0.174219E+01   0.146283E+02
   0.175545E+01   0.147166E+02
   0.176871E+01   0.148044E+02
   0.178197E+01   0.148919E+02
   0.179523E+01   0.149789E+02
   0.180849E+01   0.150656E+02
   0.182175E+01   0.151518E+02
   0.183501E+01   0.152377E+02
   0.184827E+01   0.153232E+02
   0.186152E+01   0.154084E+02
   0.187478E+01   0.154933E+02
   0.188803E+01   0.155778E+02
   0.190129E+01   0.156620E+02
   0.191454E+01   0.157459E+02
   0.192780E+01   0.158295E+02
   0.194105E+01   0.159128E+02
   0.195430E+01   0.159958E+02
   0.196755E+01   0.160786E+02
   0.198081E+01   0.161611E+02
   0.199406E+01   0.162433E+02
   0.200731E+01   0.163253E+02
   0.202056E+01   0.164071E+02
   0.203381E+01   0.164886E+02
   0.204706E+01   0.165699E+02
   0.206031E+01   0.166510E+02
   0.207356E+01   0.167320E+02
   0.208681E+01   0.168127E+02
   0.210006E+01   0.168932E+02
   0.211331E+01   0.169735E+02
   0.212656E+01   0.170537E+02
   0.213981E+01   0.171336E+02
   0.215306E+01   0.172135E+02
   0.216630E+01   0.172931E+02
   0.217955E+01   0.173726E+02
   0.219280E+01   0.174520E+02
   0.220605E+01   0.175312E+02
   0.221930E+01   0.176103E+02
   0.223254E+01   0.176892E+02
   0.224579E+01   0.177680E+02
   0.225904E+01   0.178468E+02
   0.227229E+01   0.179254E+02
   0.228553E+01   0.180038E+02
   0.229878E+01   0.180822E+02
   0.231203E+01   0.181605E+02
   0.232528E+01   0.182387E+02
   0.233852E+01   0.183169E+02
   0.235177E+01   0.183949E+02
   0.236502E+01   0.184729E+02
   0.237826E+01   0.185508E+02
   0.239151E+01   0.186286E+02
   0.240476E+01   0.187064E+02
   0.241800E+01   0.187841E+02
   0.243125E+01   0.188618E+02
   0.244450E+01   0.189394E+02
   0.245774E+01   0.190170E+02
   0.247099E+01   0.190946E+02
   0.248424E+01   0.191722E+02
   0.249748E+01   0.192497E+02
   0.251073E+01   0.193273E+02
   0.252398E+01   0.194048E+02
   0.253722E+01   0.194823E+02
   0.255047E+01   0.195598E+02
   0.256372E+01   0.196374E+02
   0.257696E+01   0.197150E+02
   0.259021E+01   0.197926E+02
   0.260345E+01   0.198702E+02
   0.261670E+01   0.199479E+02
   0.262995E+01   0.200256E+02
   0.264319E+01   0.201034E+02
   0.265644E+01   0.201813E+02
   0.266969E+01   0.202592E+02
   0.268293E+01   0.203373E+02
   0.269618E+01   0.204154E+02
   0.270942E+01   0.204936E+02
   0.272267E+01   0.205720E+02
   0.273592E+01   0.206505E+02
   0.274916E+01   0.207291E+02
   0.276241E+01   0.208079E+02
   0.277565E+01   0.208868E+02
   0.278890E+01   0.209659E+02
   0.280215E+01   0.210452E+02
   0.281539E+01   0.211248E+02
   0.282864E+01   0.212045E+02
   0.284188E+01   0.212844E+02
   0.285513E+01   0.213647E+02
   0.286838E+01   0.214452E+02
   0.288162E+01   0.215259E+02
   0.289487E+01   0.216070E+02
   0.290811E+01   0.216885E+02
   0.292136E+01   0.217702E+02
   0.293461E+01   0.218524E+02
   0.294785E+01   0.219349E+02
   0.296110E+01   0.220179E+02
   0.297434E+01   0.221014E+02
   0.298759E+01   0.221853E+02
   0.300084E+01   0.222697E+02
   0.301408E+01   0.223547E+02
   0.302733E+01   0.224403E+02
   0.304057E+01   0.225265E+02
   0.305382E+01   0.226134E+02
   0.306707E+01   0.227010E+02
   0.308031E+01   0.227894E+02
   0.309356E+01   0.228786E+02
   0.310680E+01   0.229687E+02
   0.312005E+01   0.230597E+02
   0.313330E+01   0.231517E+02
   0.314654E+01   0.232448E+02
   0.315979E+01   0.233390E+02
   0.317303E+01   0.234344E+02
   0.318628E+01   0.235312E+02
   0.319952E+01   0.236295E+02
   0.321277E+01   0.237292E+02
   0.322602E+01   0.238307E+02
   0.323926E+01   0.239339E+02
   0.325251E+01   0.240391E+02
   0.326575E+01   0.241465E+02
   0.327900E+01   0.242562E+02
   0.329225E+01   0.243685E+02
   0.330549E+01   0.244837E+02
   0.331874E+01   0.246022E+02
   0.333198E+01   0.247245E+02
   0.334523E+01   0.248513E+02
   0.335848E+01   0.249838E+02
   0.337172E+01   0.251235E+02
   0.338497E+01   0.252720E+02
   0.339821E+01   0.254307E+02
   0.341146E+01   0.256001E+02
   0.342471E+01   0.257788E+02
   0.343795E+01   0.259644E+02
   0.345120E+01   0.261537E+02
   0.346444E+01   0.263440E+02
   0.347769E+01   0.265333E+02
   0.349093E+01   0.267204E+02
   0.350418E+01   0.269032E+02
   0.351743E+01   0.270783E+02
   0.353067E+01   0.272453E+02
   0.354392E+01   0.274063E+02
   0.355716E+01   0.275639E+02
   0.357041E+01   0.277197E+02
   0.358366E+01   0.278739E+02
   0.359690E+01   0.280249E+02
   0.361015E+01   0.281676E+02
   0.362339E+01   0.282903E+02
   0.363664E+01   0.283767E+02
   0.364989E+01   0.284206E+02
   0.366313E+01   0.284347E+02
   0.367638E+01   0.284371E+02
   0.368962E+01   0.284372E+02
   0.370287E+01   0.284372E+02
   0.371612E+01   0.284372E+02
   0.372936E+01   0.284372E+02
   0.374261E+01   0.284372E+02
   0.375585E+01   0.284372E+02
   0.376910E+01   0.284372E+02
   0.378234E+01   0.284372E+02
   0.379559E+01   0.284372E+02
   0.380884E+01   0.284371E+02
   0.382208E+01   0.284371E+02
   0.383533E+01   0.284371E+02
   0.384857E+01   0.284371E+02
   0.386182E+01   0.284371E+02
   0.387507E+01   0.284371E+02
   0.388831E+01   0.284371E+02
   0.390156E+01   0.284371E+02
   0.391480E+01   0.284370E+02
   0.392805E+01   0.284370E+02
   0.394130E+01   0.284370E+02
   0.395454E+01   0.284370E+02
   0.396779E+01   0.284370E+02
   0.398103E+01   0.284370E+02
   0.399428E+01   0.284369E+02
   0.400752E+01   0.284369E+02
   0.402077E+01   0.284369E+02
   0.403402E+01   0.284369E+02
   0.404726E+01   0.284368E+02
   0.406051E+01   0.284368E+02
   0.407375E+01   0.284368E+02
   0.408700E+01   0.284368E+02
   0.410025E+01   0.284367E+02
   0.411349E+01   0.284367E+02
   0.412674E+01   0.284367E+02
   0.413998E+01   0.284367E+02
   0.415323E+01   0.284366E+02
   0.416648E+01   0.284366E+02
   0.417972E+01   0.284366E+02
   0.419297E+01   0.284365E+02
   0.420621E+01   0.284365E+02
   0.421946E+01   0.284364E+02
   0.423271E+01   0.284364E+02
   0.424595E+01   0.284364E+02
   0.425920E+01   0.284363E+02
   0.427244E+01   0.284363E+02
   0.428569E+01   0.284362E+02
   0.429893E+01   0.284362E+02
   0.431218E+01   0.284362E+02
   0.432543E+01   0.284361E+02
   0.433867E+01   0.284361E+02
   0.435192E+01   0.284360E+02
   0.436516E+01   0.284360E+02
   0.437841E+01   0.284359E+02
   0.439166E+01   0.284359E+02
   0.440490E+01   0.284359E+02
   0.441815E+01   0.284358E+02
   0.443139E+01   0.284358E+02
   0.444464E+01   0.284357E+02
   0.445789E+01   0.284357E+02
   0.447113E+01   0.284356E+02
   0.448438E+01   0.284356E+02
   0.449762E+01   0.284355E+02
   0.451087E+01   0.284355E+02
   0.452412E+01   0.284355E+02
   0.453736E+01   0.284354E+02
   0.455061E+01   0.284354E+02
   0.456385E+01   0.284353E+02
   0.457710E+01   0.284353E+02
   0.459034E+01   0.284353E+02
   0.460359E+01   0.284352E+02
   0.461684E+01   0.284352E+02
   0.463008E+01   0.284351E+02
   0.464333E+01   0.284351E+02
   0.465657E+01   0.284351E+02
   0.466982E+01   0.284350E+02
   0.468307E+01   0.284350E+02
   0.469631E+01   0.284349E+02
   0.470956E+01   0.284349E+02
   0.472280E+01   0.284349E+02
   0.473605E+01   0.284348E+02
   0.474930E+01   0.284348E+02
   0.476254E+01   0.284348E+02
   0.477579E+01   0.284348E+02
   0.478903E+01   0.284347E+02
   0.480228E+01   0.284347E+02
   0.481552E+01   0.284347E+02
   0.482877E+01   0.284346E+02
   0.484202E+01   0.284346E+02
   0.485526E+01   0.284346E+02
   0.486851E+01   0.284345E+02
   0.488175E+01   0.284345E+02
   0.489500E+01   0.284345E+02
   0.490825E+01   0.284344E+02
   0.492149E+01   0.284344E+02
   0.493474E+01   0.284344E+02
   0.494798E+01   0.284343E+02
   0.496123E+01   0.284343E+02
   0.497448E+01   0.284342E+02
   0.498772E+01   0.284342E+02
   0.500097E+01   0.284342E+02
   0.501421E+01   0.284341E+02
   0.502746E+01   0.284341E+02
   0.504070E+01   0.284340E+02
   0.505395E+01   0.284340E+02
   0.506720E+01   0.284339E+02
   0.508044E+01   0.284339E+02
   0.509369E+01   0.284338E+02
   0.510693E+01   0.284338E+02
   0.512018E+01   0.284337E+02
   0.513343E+01   0.284336E+02
   0.514667E+01   0.284335E+02
   0.515992E+01   0.284334E+02
   0.517316E+01   0.284333E+02
   0.518641E+01   0.284331E+02
   0.519966E+01   0.284330E+02
   0.521290E+01   0.284326E+02
   0.522615E+01   0.284327E+02
   0.523939E+01   0.284331E+02
