TITLE     = "CPQS/FTC(2017) 99:553-564 | CPQS/FTC(2017) 99:553-564 | CPQS/FTC(2017) 99:553-564 | CPQS/FTC(2017) 99:553-564 | CPQS/FTC(2017) 99:553-564 | CPQS/FTC(2017) 99:553-564"
VARIABLES = "y"
"U"
"u'rms"
"v'rms"
"w'rms"
"-u'v'"
"dU/dy"
ZONE T="Case C3000a (My Ref:032ab-to-052ad(PG=4400):4752samples)"
 STRANDID=0, SOLUTIONTIME=0
 I=257, J=1, K=1, ZONETYPE=Ordered
 DATAPACKING=POINT
 DT=(DOUBLE DOUBLE DOUBLE DOUBLE DOUBLE DOUBLE DOUBLE )
 1.000000000E+00 1.000000000E+00 0.000000000E+00 1.146017271E-15 9.769113027E-16 -6.793704797E-31 -3.237332051E-02
 9.999247018E-01 1.000002400E+00 1.244118113E-04 5.209024542E-08 1.202043166E-04 -4.192651001E-13 -3.137945875E-02
 9.996988187E-01 1.000009152E+00 4.964275496E-04 8.305222726E-07 4.795641732E-04 -2.704027163E-11 -2.839786422E-02
 9.993223846E-01 1.000018906E+00 1.112381350E-03 4.179755800E-06 1.074327279E-03 -3.117150557E-10 -2.342971183E-02
 9.987954562E-01 1.000029421E+00 1.966226123E-03 1.310051621E-05 1.898293159E-03 -1.779052407E-09 -1.647845126E-02
 9.981181129E-01 1.000037558E+00 3.049748551E-03 3.164218145E-05 2.942933970E-03 -6.915444629E-09 -7.552488951E-03
 9.972904567E-01 1.000039303E+00 4.352799558E-03 6.475895367E-05 4.197531674E-03 -2.108991612E-08 3.330842275E-03
 9.963126122E-01 1.000029779E+00 5.863502885E-03 1.181344102E-04 5.649313000E-03 -5.438132141E-08 1.613982117E-02
 9.951847267E-01 1.000003284E+00 7.568522221E-03 1.979800273E-04 7.283608746E-03 -1.239268591E-07 3.082127713E-02
 9.939069700E-01 9.999533586E-01 9.453336369E-03 3.108151713E-04 9.084019152E-03 -2.567297929E-07 4.729217140E-02
 9.924795346E-01 9.998728698E-01 1.150249049E-02 4.632358687E-04 1.103257824E-02 -4.927512920E-07 6.543032683E-02
 9.909026354E-01 9.997541504E-01 1.369982014E-02 6.616801749E-04 1.310992643E-02 -8.879773375E-07 8.506522244E-02
 9.891765100E-01 9.995891787E-01 1.602863657E-02 9.121986424E-04 1.529550310E-02 -1.517006715E-06 1.059702400E-01
 9.873014182E-01 9.993698105E-01 1.847186900E-02 1.220238970E-03 1.756777676E-02 -2.474584106E-06 1.278580559E-01
 9.852776424E-01 9.990880596E-01 2.101216726E-02 1.590454266E-03 1.990453172E-02 -3.875453001E-06 1.503811001E-01
 9.831054874E-01 9.987364146E-01 2.363197846E-02 2.026544196E-03 2.228322567E-02 -5.851983754E-06 1.731386568E-01
 9.807852804E-01 9.983081718E-01 2.631361895E-02 2.531137141E-03 2.468142041E-02 -8.549291292E-06 1.956915360E-01
 9.783173707E-01 9.977977569E-01 2.903936889E-02 3.105719277E-03 2.707727215E-02 -1.211798584E-05 2.175837982E-01
 9.757021300E-01 9.972010003E-01 3.179161305E-02 3.750613172E-03 2.945004987E-02 -1.670522434E-05 2.383696306E-01
 9.729399522E-01 9.965153376E-01 3.455304351E-02 4.465004694E-03 3.178063939E-02 -2.244519033E-05 2.576418730E-01
 9.700312532E-01 9.957399079E-01 3.730692244E-02 5.247013215E-03 3.405198632E-02 -2.945037519E-05 2.750582117E-01
 9.669764710E-01 9.948755423E-01 4.003738774E-02 6.093797143E-03 3.624943936E-02 -3.780494159E-05 2.903610435E-01
 9.637760658E-01 9.939246448E-01 4.272976900E-02 7.001685014E-03 3.836096720E-02 -4.756105822E-05 3.033885176E-01
 9.604305194E-01 9.928909848E-01 4.537087707E-02 7.966321914E-03 4.037724142E-02 -5.873849529E-05 3.140756899E-01
 9.569403357E-01 9.917794311E-01 4.794923204E-02 8.982821694E-03 4.229159098E-02 -7.132718634E-05 3.224468913E-01
 9.533060404E-01 9.905956562E-01 5.045520717E-02 1.004591689E-02 4.409984827E-02 -8.529199943E-05 3.286013382E-01
 9.495281806E-01 9.893458448E-01 5.288107827E-02 1.115010011E-02 4.580011108E-02 -1.005787647E-04 3.326951086E-01
 9.456073254E-01 9.880364276E-01 5.522098407E-02 1.228975262E-02 4.739245011E-02 -1.171205973E-04 3.349220692E-01
 9.415440652E-01 9.866738562E-01 5.747081074E-02 1.345925744E-02 4.887858804E-02 -1.348437643E-04 3.354963277E-01
 9.373390119E-01 9.852644283E-01 5.962802274E-02 1.465309584E-02 5.026157488E-02 -1.536725837E-04 3.346373927E-01
 9.329927988E-01 9.838141595E-01 6.169146089E-02 1.586592700E-02 5.154547641E-02 -1.735331570E-04 3.325590402E-01
 9.285060805E-01 9.823287002E-01 6.366113025E-02 1.709265153E-02 5.273508879E-02 -1.943559214E-04 3.294615088E-01
 9.238795325E-01 9.808132880E-01 6.553799300E-02 1.832846010E-02 5.383568516E-02 -2.160771882E-04 3.255269877E-01
 9.191138517E-01 9.792727292E-01 6.732377858E-02 1.956886862E-02 5.485279898E-02 -2.386398656E-04 3.209173127E-01
 9.142097557E-01 9.777113995E-01 6.902081434E-02 2.080974185E-02 5.579204397E-02 -2.619936096E-04 3.157736785E-01
 9.091679831E-01 9.761332607E-01 7.063187868E-02 2.204730663E-02 5.665897097E-02 -2.860946022E-04 3.102172247E-01
 9.039892931E-01 9.745418852E-01 7.216007442E-02 2.327815651E-02 5.745895937E-02 -3.109051227E-04 3.043506237E-01
 8.986744657E-01 9.729404867E-01 7.360872425E-02 2.449924882E-02 5.819714314E-02 -3.363930039E-04 2.982597123E-01
 8.932243012E-01 9.713319526E-01 7.498128545E-02 2.570789577E-02 5.887836681E-02 -3.625310109E-04 2.920156690E-01
 8.876396204E-01 9.697188771E-01 7.628128337E-02 2.690175076E-02 5.950716826E-02 -3.892961551E-04 2.856768352E-01
 8.819212643E-01 9.681035922E-01 7.751225849E-02 2.807879121E-02 6.008778087E-02 -4.166689676E-04 2.792909156E-01
 8.760700942E-01 9.664881954E-01 7.867772837E-02 2.923729870E-02 6.062414885E-02 -4.446328134E-04 2.728965580E-01
 8.700869911E-01 9.648745755E-01 7.978116005E-02 3.037583730E-02 6.111994597E-02 -4.731732793E-04 2.665252261E-01
 8.639728561E-01 9.632644329E-01 8.082595254E-02 3.149323080E-02 6.157859561E-02 -5.022776746E-04 2.602023514E-01
 8.577286100E-01 9.616592978E-01 8.181542019E-02 3.258853949E-02 6.200329310E-02 -5.319346018E-04 2.539489560E-01
 8.513551931E-01 9.600605421E-01 8.275277778E-02 3.366103731E-02 6.239703679E-02 -5.621336034E-04 2.477827104E-01
 8.448535652E-01 9.584693858E-01 8.364112884E-02 3.471018976E-02 6.276266552E-02 -5.928648873E-04 2.417195301E-01
 8.382247056E-01 9.568868989E-01 8.448346680E-02 3.573563347E-02 6.310289463E-02 -6.241192549E-04 2.357738935E-01
 8.314696123E-01 9.553140021E-01 8.528268167E-02 3.673715847E-02 6.342033722E-02 -6.558880771E-04 2.299590418E-01
 8.245893028E-01 9.537514709E-01 8.604157156E-02 3.771469366E-02 6.371750569E-02 -6.881630845E-04 2.242864422E-01
 8.175848132E-01 9.521999391E-01 8.676285351E-02 3.866829518E-02 6.399679936E-02 -7.209358833E-04 2.187668888E-01
 8.104571983E-01 9.506598944E-01 8.744918669E-02 3.959813613E-02 6.426049755E-02 -7.541976394E-04 2.134114739E-01
 8.032075315E-01 9.491316680E-01 8.810320399E-02 4.050449669E-02 6.451075357E-02 -7.879392730E-04 2.082325221E-01
 7.958369046E-01 9.476154244E-01 8.872753505E-02 4.138775427E-02 6.474957381E-02 -8.221521688E-04 2.032420760E-01
 7.883464276E-01 9.461111640E-01 8.932478354E-02 4.224837460E-02 6.497878443E-02 -8.568286130E-04 1.984506563E-01
 7.807372286E-01 9.446187330E-01 8.989747098E-02 4.308690339E-02 6.520001476E-02 -8.919615855E-04 1.938665879E-01
 7.730104534E-01 9.431378332E-01 9.044798653E-02 4.390395797E-02 6.541470038E-02 -9.275441197E-04 1.894971593E-01
 7.651672656E-01 9.416680260E-01 9.097857288E-02 4.470021602E-02 6.562408748E-02 -9.635690166E-04 1.853488371E-01
 7.572088465E-01 9.402087363E-01 9.149132857E-02 4.547640114E-02 6.582922611E-02 -1.000028917E-03 1.814273474E-01
 7.491363945E-01 9.387592586E-01 9.198821606E-02 4.623326703E-02 6.603097798E-02 -1.036916576E-03 1.777372587E-01
 7.409511254E-01 9.373187660E-01 9.247107336E-02 4.697158320E-02 6.623005349E-02 -1.074225523E-03 1.742818389E-01
 7.326542717E-01 9.358863271E-01 9.294163497E-02 4.769212310E-02 6.642707181E-02 -1.111951100E-03 1.710611286E-01
 7.242470830E-01 9.344609392E-01 9.340155187E-02 4.839565494E-02 6.662262089E-02 -1.150090120E-03 1.680712633E-01
 7.157308253E-01 9.330415574E-01 9.385242092E-02 4.908293417E-02 6.681730989E-02 -1.188639276E-03 1.653061744E-01
 7.071067812E-01 9.316271066E-01 9.429582477E-02 4.975469644E-02 6.701180082E-02 -1.227594025E-03 1.627601235E-01
 6.983762494E-01 9.302164783E-01 9.473336020E-02 5.041165065E-02 6.720681580E-02 -1.266948890E-03 1.604282336E-01
 6.895405447E-01 9.288085280E-01 9.516664094E-02 5.105447458E-02 6.740313240E-02 -1.306698358E-03 1.583061991E-01
 6.806009978E-01 9.274020792E-01 9.559727781E-02 5.168381411E-02 6.760153275E-02 -1.346838165E-03 1.563887926E-01
 6.715589548E-01 9.259959381E-01 9.602682511E-02 5.230028642E-02 6.780270699E-02 -1.387365279E-03 1.546699243E-01
 6.624157776E-01 9.245888971E-01 9.645672683E-02 5.290448558E-02 6.800723918E-02 -1.428276945E-03 1.531440611E-01
 6.531728430E-01 9.231797339E-01 9.688830208E-02 5.349698822E-02 6.821561078E-02 -1.469569358E-03 1.518059702E-01
 6.438315429E-01 9.217672196E-01 9.732277305E-02 5.407835671E-02 6.842816245E-02 -1.511237167E-03 1.506490729E-01
 6.343932842E-01 9.203501390E-01 9.776130064E-02 5.464914260E-02 6.864505591E-02 -1.553273861E-03 1.496649448E-01
 6.248594881E-01 9.189273114E-01 9.820499396E-02 5.520989126E-02 6.886625429E-02 -1.595674319E-03 1.488433720E-01
 6.152315906E-01 9.174976121E-01 9.865483474E-02 5.576114415E-02 6.909153633E-02 -1.638436626E-03 1.481728995E-01
 6.055110414E-01 9.160599831E-01 9.911152994E-02 5.630343420E-02 6.932065110E-02 -1.681561399E-03 1.476419908E-01
 5.956993045E-01 9.146134366E-01 9.957543997E-02 5.683727815E-02 6.955345337E-02 -1.725049084E-03 1.472395802E-01
 5.857978575E-01 9.131570560E-01 1.000466461E-01 5.736316843E-02 6.978995366E-02 -1.768897896E-03 1.469548738E-01
 5.758081914E-01 9.116899952E-01 1.005250824E-01 5.788156352E-02 7.003034914E-02 -1.813101439E-03 1.467786413E-01
 5.657318108E-01 9.102114456E-01 1.010106760E-01 5.839288220E-02 7.027492272E-02 -1.857648326E-03 1.467074593E-01
 5.555702330E-01 9.087205734E-01 1.015034384E-01 5.889750733E-02 7.052391441E-02 -1.902526871E-03 1.467440035E-01
 5.453249884E-01 9.072164854E-01 1.020034196E-01 5.939579613E-02 7.077757365E-02 -1.947730834E-03 1.468910050E-01
 5.349976199E-01 9.056982542E-01 1.025106143E-01 5.988809689E-02 7.103621946E-02 -1.993258162E-03 1.471477653E-01
 5.245896827E-01 9.041649402E-01 1.030249877E-01 6.037476295E-02 7.130003479E-02 -2.039106868E-03 1.475128356E-01
 5.141027442E-01 9.026156086E-01 1.035466331E-01 6.085614746E-02 7.156893179E-02 -2.085274851E-03 1.479812874E-01
 5.035383837E-01 9.010494008E-01 1.040757467E-01 6.133259253E-02 7.184271555E-02 -2.131759896E-03 1.485391919E-01
 4.928981922E-01 8.994656195E-01 1.046124048E-01 6.180442906E-02 7.212124238E-02 -2.178555090E-03 1.491688708E-01
 4.821837721E-01 8.978636971E-01 1.051564917E-01 6.227197378E-02 7.240450343E-02 -2.225648566E-03 1.498628313E-01
 4.713967368E-01 8.962430801E-01 1.057078229E-01 6.273551116E-02 7.269268117E-02 -2.273032002E-03 1.506224010E-01
 4.605387110E-01 8.946031797E-01 1.062662438E-01 6.319526967E-02 7.298618557E-02 -2.320698955E-03 1.514513537E-01
 4.496113297E-01 8.929433101E-01 1.068317298E-01 6.365139668E-02 7.328558103E-02 -2.368634406E-03 1.523632379E-01
 4.386162385E-01 8.912625877E-01 1.074045053E-01 6.410394025E-02 7.359144425E-02 -2.416820576E-03 1.533758340E-01
 4.275550934E-01 8.895599738E-01 1.079849443E-01 6.455286514E-02 7.390430678E-02 -2.465247387E-03 1.544956651E-01
 4.164295601E-01 8.878344142E-01 1.085732365E-01 6.499811069E-02 7.422461008E-02 -2.513910163E-03 1.557173984E-01
 4.052413140E-01 8.860849396E-01 1.091692304E-01 6.543965055E-02 7.455236423E-02 -2.562804360E-03 1.570300575E-01
 3.939920401E-01 8.843106714E-01 1.097723142E-01 6.587751900E-02 7.488713959E-02 -2.611919084E-03 1.584299487E-01
 3.826834324E-01 8.825106374E-01 1.103814726E-01 6.631179826E-02 7.522850021E-02 -2.661234256E-03 1.599369025E-01
 3.713171940E-01 8.806835380E-01 1.109957327E-01 6.674258244E-02 7.557638632E-02 -2.710730864E-03 1.615831919E-01
 3.598950365E-01 8.788277428E-01 1.116144918E-01 6.716996348E-02 7.593090982E-02 -2.760400099E-03 1.633886553E-01
 3.484186802E-01 8.769415366E-01 1.122375221E-01 6.759404196E-02 7.629195285E-02 -2.810243311E-03 1.653441279E-01
 3.368898534E-01 8.750234587E-01 1.128648648E-01 6.801493305E-02 7.665918857E-02 -2.860269714E-03 1.674146149E-01
 3.253102922E-01 8.730724948E-01 1.134967087E-01 6.843276693E-02 7.703228622E-02 -2.910487960E-03 1.695606770E-01
 3.136817404E-01 8.710880039E-01 1.141332651E-01 6.884769795E-02 7.741098167E-02 -2.960897271E-03 1.717591621E-01
 3.020059493E-01 8.690695072E-01 1.147747599E-01 6.925991510E-02 7.779496324E-02 -3.011488699E-03 1.740054563E-01
 2.902846773E-01 8.670164778E-01 1.154213632E-01 6.966964612E-02 7.818368689E-02 -3.062253275E-03 1.763139465E-01
 2.785196894E-01 8.649281377E-01 1.160730576E-01 7.007715058E-02 7.857633602E-02 -3.113187526E-03 1.787101782E-01
 2.667127575E-01 8.628034720E-01 1.167297533E-01 7.048268697E-02 7.897215477E-02 -3.164287803E-03 1.812064870E-01
 2.548656596E-01 8.606414213E-01 1.173912071E-01 7.088646510E-02 7.937069623E-02 -3.215540054E-03 1.838004327E-01
 2.429801799E-01 8.584409736E-01 1.180567674E-01 7.128861197E-02 7.977180057E-02 -3.266928396E-03 1.864885949E-01
 2.310581083E-01 8.562011701E-01 1.187255635E-01 7.168917388E-02 8.017576178E-02 -3.318452974E-03 1.892636838E-01
 2.191012402E-01 8.539212374E-01 1.193969777E-01 7.208813212E-02 8.058313183E-02 -3.370124711E-03 1.921029312E-01
 2.071113762E-01 8.516006932E-01 1.200707282E-01 7.248540464E-02 8.099433364E-02 -3.421939549E-03 1.949875100E-01
 1.950903220E-01 8.492391374E-01 1.207468901E-01 7.288086113E-02 8.140948009E-02 -3.473874684E-03 1.979249645E-01
 1.830398880E-01 8.468360002E-01 1.214259162E-01 7.327431484E-02 8.182847844E-02 -3.525910830E-03 2.009334120E-01
 1.709618888E-01 8.443905468E-01 1.221081672E-01 7.366549042E-02 8.225134575E-02 -3.578041529E-03 2.040227715E-01
 1.588581433E-01 8.419019732E-01 1.227935868E-01 7.405405328E-02 8.267860101E-02 -3.630258175E-03 2.071984225E-01
 1.467304745E-01 8.393694036E-01 1.234821649E-01 7.443968547E-02 8.311142825E-02 -3.682550529E-03 2.104677336E-01
 1.345807085E-01 8.367919684E-01 1.241742387E-01 7.482211224E-02 8.355114212E-02 -3.734926527E-03 2.138197976E-01
 1.224106752E-01 8.341691298E-01 1.248702460E-01 7.520110210E-02 8.399824411E-02 -3.787404556E-03 2.172141722E-01
 1.102222073E-01 8.315009677E-01 1.255708318E-01 7.557648035E-02 8.445163273E-02 -3.839994115E-03 2.205959877E-01
 9.801714033E-02 8.287882069E-01 1.262766337E-01 7.594816633E-02 8.490927983E-02 -3.892687368E-03 2.239226372E-01
 8.579731234E-02 8.260318834E-01 1.269877213E-01 7.631622084E-02 8.536993156E-02 -3.945461493E-03 2.271934512E-01
 7.356456360E-02 8.232327545E-01 1.277040153E-01 7.668082472E-02 8.583350195E-02 -3.998295202E-03 2.304536323E-01
 6.132073630E-02 8.203910490E-01 1.284254790E-01 7.704221420E-02 8.630006686E-02 -4.051183301E-03 2.337351035E-01
 4.906767433E-02 8.175068958E-01 1.291515569E-01 7.740062277E-02 8.676906329E-02 -4.104123840E-03 2.370311953E-01
 3.680722294E-02 8.145804717E-01 1.298810915E-01 7.775624499E-02 8.723918246E-02 -4.157104320E-03 2.403504617E-01
 2.454122852E-02 8.116117732E-01 1.306127019E-01 7.810925406E-02 8.770906076E-02 -4.210112475E-03 2.437104855E-01
 1.227153829E-02 8.086006143E-01 1.313448896E-01 7.845985070E-02 8.817811783E-02 -4.263118924E-03 2.471321018E-01
 3.159156624E-14 8.055463950E-01 1.320762580E-01 7.880827441E-02 8.864650523E-02 -4.316084494E-03 2.506619255E-01
 -1.227153829E-02 8.024480773E-01 1.328060019E-01 7.915479101E-02 8.911443035E-02 -4.369005397E-03 2.543184765E-01
 -2.454122852E-02 7.993046195E-01 1.335338986E-01 7.949967369E-02 8.958167537E-02 -4.421897466E-03 2.580959296E-01
 -3.680722294E-02 7.961150284E-01 1.342598455E-01 7.984317438E-02 9.004790940E-02 -4.474756085E-03 2.619947147E-01
 -4.906767433E-02 7.928783652E-01 1.349835916E-01 8.018547939E-02 9.051327029E-02 -4.527568438E-03 2.660084921E-01
 -6.132073630E-02 7.895938085E-01 1.357049355E-01 8.052669699E-02 9.097831227E-02 -4.580326152E-03 2.701291417E-01
 -7.356456360E-02 7.862606875E-01 1.364236468E-01 8.086690012E-02 9.144373718E-02 -4.633020898E-03 2.743418779E-01
 -8.579731234E-02 7.828786555E-01 1.371391849E-01 8.120620007E-02 9.191039559E-02 -4.685649019E-03 2.786124057E-01
 -9.801714033E-02 7.794478033E-01 1.378507484E-01 8.154479180E-02 9.237848876E-02 -4.738204377E-03 2.829162282E-01
 -1.102222073E-01 7.759683431E-01 1.385579910E-01 8.188285572E-02 9.284720053E-02 -4.790685882E-03 2.872577379E-01
 -1.224106752E-01 7.724404660E-01 1.392612883E-01 8.222041558E-02 9.331573007E-02 -4.843097447E-03 2.916375491E-01
 -1.345807085E-01 7.688643629E-01 1.399610911E-01 8.255733952E-02 9.378430082E-02 -4.895423497E-03 2.960618858E-01
 -1.467304745E-01 7.652401407E-01 1.406576520E-01 8.289343992E-02 9.425397254E-02 -4.947635245E-03 3.005405758E-01
 -1.588581433E-01 7.615677895E-01 1.413508105E-01 8.322858349E-02 9.472585858E-02 -4.999707065E-03 3.050909920E-01
 -1.709618888E-01 7.578469741E-01 1.420399781E-01 8.356268359E-02 9.520047520E-02 -5.051616790E-03 3.097530463E-01
 -1.830398880E-01 7.540769652E-01 1.427244650E-01 8.389558339E-02 9.567753283E-02 -5.103363233E-03 3.145461306E-01
 -1.950903220E-01 7.502571322E-01 1.434039181E-01 8.422698643E-02 9.615628616E-02 -5.154950389E-03 3.194460407E-01
 -2.071113762E-01 7.463871253E-01 1.440784469E-01 8.455650897E-02 9.663644512E-02 -5.206360934E-03 3.244455341E-01
 -2.191012402E-01 7.424665401E-01 1.447488199E-01 8.488377751E-02 9.711849891E-02 -5.257577346E-03 3.295590155E-01
 -2.310581083E-01 7.384949772E-01 1.454160655E-01 8.520853781E-02 9.760332720E-02 -5.308597134E-03 3.347728391E-01
 -2.429801799E-01 7.344723004E-01 1.460810015E-01 8.553072272E-02 9.809138267E-02 -5.359414636E-03 3.400734241E-01
 -2.548656596E-01 7.303984355E-01 1.467442088E-01 8.585040679E-02 9.858281304E-02 -5.410020755E-03 3.454625267E-01
 -2.667127575E-01 7.262734396E-01 1.474056591E-01 8.616772150E-02 9.907733369E-02 -5.460413552E-03 3.509246397E-01
 -2.785196894E-01 7.220974892E-01 1.480640328E-01 8.648279733E-02 9.957398726E-02 -5.510588244E-03 3.564660106E-01
 -2.902846773E-01 7.178706189E-01 1.487176538E-01 8.679567034E-02 1.000716690E-01 -5.560533741E-03 3.621068468E-01
 -3.020059493E-01 7.135926174E-01 1.493661614E-01 8.710624413E-02 1.005692093E-01 -5.610236843E-03 3.678754925E-01
 -3.136817404E-01 7.092630461E-01 1.500102690E-01 8.741423745E-02 1.010662777E-01 -5.659691306E-03 3.737813269E-01
 -3.253102922E-01 7.048817107E-01 1.506506535E-01 8.771916930E-02 1.015637067E-01 -5.708896312E-03 3.797815795E-01
 -3.368898534E-01 7.004490037E-01 1.512874194E-01 8.802053333E-02 1.020624318E-01 -5.757845661E-03 3.858435103E-01
 -3.484186802E-01 6.959653091E-01 1.519203423E-01 8.831804696E-02 1.025630557E-01 -5.806529699E-03 3.920052904E-01
 -3.598950365E-01 6.914305391E-01 1.525496405E-01 8.861172697E-02 1.030656908E-01 -5.854935977E-03 3.983034690E-01
 -3.713171940E-01 6.868444883E-01 1.531760245E-01 8.890178878E-02 1.035697100E-01 -5.903049019E-03 4.047297550E-01
 -3.826834324E-01 6.822072763E-01 1.538006522E-01 8.918859787E-02 1.040743104E-01 -5.950856037E-03 4.112528347E-01
 -3.939920401E-01 6.775193267E-01 1.544247410E-01 8.947274429E-02 1.045784092E-01 -5.998367511E-03 4.178592878E-01
 -4.052413140E-01 6.727812883E-01 1.550484386E-01 8.975497014E-02 1.050805746E-01 -6.045611806E-03 4.245288587E-01
 -4.164295601E-01 6.679939161E-01 1.556709236E-01 9.003598933E-02 1.055801151E-01 -6.092575737E-03 4.312825999E-01
 -4.275550934E-01 6.631574731E-01 1.562916453E-01 9.031644575E-02 1.060771442E-01 -6.139216201E-03 4.381858409E-01
 -4.386162385E-01 6.582715007E-01 1.569105196E-01 9.059683095E-02 1.065726416E-01 -6.185488381E-03 4.453132653E-01
 -4.496113297E-01 6.533347642E-01 1.575273700E-01 9.087735520E-02 1.070686869E-01 -6.231366992E-03 4.527361134E-01
 -4.605387110E-01 6.483456357E-01 1.581418155E-01 9.115792494E-02 1.075674104E-01 -6.276859882E-03 4.604596932E-01
 -4.713967368E-01 6.433030207E-01 1.587532433E-01 9.143820806E-02 1.080704276E-01 -6.321991369E-03 4.684063992E-01
 -4.821837721E-01 6.382066873E-01 1.593609851E-01 9.171774073E-02 1.085789680E-01 -6.366771870E-03 4.765348699E-01
 -4.928981922E-01 6.330564678E-01 1.599652801E-01 9.199601775E-02 1.090938194E-01 -6.411192559E-03 4.848724175E-01
 -5.035383837E-01 6.278521296E-01 1.605677283E-01 9.227253792E-02 1.096144084E-01 -6.455214763E-03 4.934113025E-01
 -5.141027442E-01 6.225935973E-01 1.611705357E-01 9.254682372E-02 1.101393615E-01 -6.498761207E-03 5.021622439E-01
 -5.245896827E-01 6.172804790E-01 1.617758591E-01 9.281834805E-02 1.106671678E-01 -6.541799567E-03 5.111797393E-01
 -5.349976199E-01 6.119120243E-01 1.623855438E-01 9.308645217E-02 1.111965960E-01 -6.584385694E-03 5.204896714E-01
 -5.453249884E-01 6.064874175E-01 1.630007152E-01 9.335039743E-02 1.117275167E-01 -6.626586882E-03 5.301047304E-01
 -5.555702330E-01 6.010058936E-01 1.636223940E-01 9.360937942E-02 1.122606090E-01 -6.668417360E-03 5.400183783E-01
 -5.657318108E-01 5.954669706E-01 1.642526334E-01 9.386254653E-02 1.127966683E-01 -6.709809438E-03 5.502119874E-01
 -5.758081914E-01 5.898703641E-01 1.648941105E-01 9.410907050E-02 1.133354271E-01 -6.750686855E-03 5.606870317E-01
 -5.857978575E-01 5.842158406E-01 1.655485055E-01 9.434823653E-02 1.138766053E-01 -6.791031397E-03 5.714531951E-01
 -5.956993045E-01 5.785031067E-01 1.662157602E-01 9.457959173E-02 1.144202786E-01 -6.830840044E-03 5.825414643E-01
 -6.055110414E-01 5.727314081E-01 1.668957127E-01 9.480289645E-02 1.149659295E-01 -6.870073344E-03 5.940449201E-01
 -6.152315906E-01 5.668990525E-01 1.675897079E-01 9.501781455E-02 1.155124996E-01 -6.908711969E-03 6.060704198E-01
 -6.248594881E-01 5.610039188E-01 1.682996154E-01 9.522380077E-02 1.160588258E-01 -6.946783252E-03 6.186308284E-01
 -6.343932842E-01 5.550441926E-01 1.690267575E-01 9.542018286E-02 1.166035536E-01 -6.984289792E-03 6.317097867E-01
 -6.438315429E-01 5.490182107E-01 1.697716959E-01 9.560616823E-02 1.171456532E-01 -7.021201763E-03 6.453354303E-01
 -6.531728430E-01 5.429240872E-01 1.705353236E-01 9.578077967E-02 1.176844505E-01 -7.057493891E-03 6.595652879E-01
 -6.624157776E-01 5.367595909E-01 1.713201384E-01 9.594285725E-02 1.182190854E-01 -7.093133136E-03 6.744589665E-01
 -6.715589548E-01 5.305222396E-01 1.721296796E-01 9.609105847E-02 1.187492543E-01 -7.128074366E-03 6.900668294E-01
 -6.806009978E-01 5.242092223E-01 1.729677478E-01 9.622376854E-02 1.192758474E-01 -7.162261183E-03 7.064778579E-01
 -6.895405447E-01 5.178170532E-01 1.738384515E-01 9.633914694E-02 1.198001915E-01 -7.195678485E-03 7.238007254E-01
 -6.983762494E-01 5.113419080E-01 1.747456144E-01 9.643527836E-02 1.203225869E-01 -7.228353281E-03 7.420708484E-01
 -7.071067812E-01 5.047801140E-01 1.756922443E-01 9.651023188E-02 1.208420508E-01 -7.260267204E-03 7.613219496E-01
 -7.157308253E-01 4.981277712E-01 1.766810071E-01 9.656215518E-02 1.213565693E-01 -7.291353945E-03 7.816502741E-01
 -7.242470830E-01 4.913806192E-01 1.777151065E-01 9.658925731E-02 1.218634755E-01 -7.321571040E-03 8.031260628E-01
 -7.326542717E-01 4.845342121E-01 1.787983871E-01 9.658959935E-02 1.223599844E-01 -7.350868485E-03 8.258478818E-01
 -7.409511254E-01 4.775833771E-01 1.799353522E-01 9.656086658E-02 1.228443410E-01 -7.379182429E-03 8.499943490E-01
 -7.491363945E-01 4.705218934E-01 1.811310288E-01 9.650027928E-02 1.233156860E-01 -7.406452136E-03 8.757683972E-01
 -7.572088465E-01 4.633422602E-01 1.823908398E-01 9.640464863E-02 1.237728565E-01 -7.432609843E-03 9.034354931E-01
 -7.651672656E-01 4.560353722E-01 1.837204194E-01 9.627044921E-02 1.242144687E-01 -7.457569428E-03 9.332899787E-01
 -7.730104534E-01 4.485907156E-01 1.851255763E-01 9.609390162E-02 1.246385679E-01 -7.481234481E-03 9.655933755E-01
 -7.807372286E-01 4.409966756E-01 1.866127992E-01 9.587103445E-02 1.250422318E-01 -7.503481698E-03 1.000620078E+00
 -7.883464276E-01 4.332401624E-01 1.881891231E-01 9.559768768E-02 1.254224698E-01 -7.524166198E-03 1.038752757E+00
 -7.958369046E-01 4.253060656E-01 1.898618449E-01 9.526950147E-02 1.257767971E-01 -7.543136574E-03 1.080437831E+00
 -8.032075315E-01 4.171771199E-01 1.916382534E-01 9.488192127E-02 1.261032894E-01 -7.560215071E-03 1.126178584E+00
 -8.104571983E-01 4.088334723E-01 1.935247195E-01 9.443015237E-02 1.264004624E-01 -7.575170817E-03 1.176604256E+00
 -8.175848132E-01 4.002520448E-01 1.955266015E-01 9.390911512E-02 1.266669917E-01 -7.587752908E-03 1.232468376E+00
 -8.245893028E-01 3.914061482E-01 1.976494126E-01 9.331349787E-02 1.269015900E-01 -7.597708096E-03 1.294613885E+00
 -8.314696123E-01 3.822654187E-01 1.998993067E-01 9.263780090E-02 1.271021518E-01 -7.604768137E-03 1.363938774E+00
 -8.382247056E-01 3.727959087E-01 2.022819419E-01 9.187630811E-02 1.272654726E-01 -7.608612128E-03 1.441412848E+00
 -8.448535652E-01 3.629598409E-01 2.048017960E-01 9.102314074E-02 1.273879290E-01 -7.608843556E-03 1.528164573E+00
 -8.513551931E-01 3.527149626E-01 2.074617947E-01 9.007240258E-02 1.274652178E-01 -7.604992958E-03 1.625524770E+00
 -8.577286100E-01 3.420139072E-01 2.102627221E-01 8.901828630E-02 1.274922297E-01 -7.596522891E-03 1.735039096E+00
 -8.639728561E-01 3.308035199E-01 2.132032771E-01 8.785509678E-02 1.274637821E-01 -7.582822535E-03 1.858505688E+00
 -8.700869911E-01 3.190242737E-01 2.162801480E-01 8.657721771E-02 1.273745068E-01 -7.563210046E-03 1.997954727E+00
 -8.760700942E-01 3.066099262E-01 2.194869788E-01 8.517913859E-02 1.272182839E-01 -7.536909188E-03 2.155682837E+00
 -8.819212643E-01 2.934867811E-01 2.228131515E-01 8.365553134E-02 1.269885396E-01 -7.503017333E-03 2.334379120E+00
 -8.876396204E-01 2.795727960E-01 2.262436853E-01 8.200135604E-02 1.266785771E-01 -7.460515817E-03 2.537118022E+00
 -8.932243012E-01 2.647771737E-01 2.297591648E-01 8.021202964E-02 1.262809459E-01 -7.408264829E-03 2.767337119E+00
 -8.986744657E-01 2.490000356E-01 2.333347958E-01 7.828365686E-02 1.257870635E-01 -7.344964996E-03 3.028921426E+00
 -9.039892931E-01 2.321318781E-01 2.369395179E-01 7.621326208E-02 1.251872504E-01 -7.269133683E-03 3.326290190E+00
 -9.091679831E-01 2.140530873E-01 2.405353062E-01 7.399898905E-02 1.244706533E-01 -7.179101425E-03 3.664432052E+00
 -9.142097557E-01 1.946336666E-01 2.440759612E-01 7.164029390E-02 1.236252445E-01 -7.072996943E-03 4.048954804E+00
 -9.191138517E-01 1.737331583E-01 2.475057255E-01 6.913813597E-02 1.226381055E-01 -6.948734857E-03 4.486119501E+00
 -9.238795325E-01 1.512010312E-01 2.507583024E-01 6.649517907E-02 1.214959279E-01 -6.804022401E-03 4.982811100E+00
 -9.285060805E-01 1.268777900E-01 2.537557824E-01 6.371603706E-02 1.201853598E-01 -6.636380181E-03 5.546463834E+00
 -9.329927988E-01 1.005970144E-01 2.564072101E-01 6.080755125E-02 1.186932389E-01 -6.443192044E-03 6.184911272E+00
 -9.373390119E-01 7.218869652E-02 2.586072240E-01 5.777903149E-02 1.170071991E-01 -6.221802480E-03 6.906103078E+00
 -9.415440652E-01 4.148435760E-02 2.602350733E-01 5.464239366E-02 1.151165323E-01 -5.969674025E-03 7.717637397E+00
 -9.456073254E-01 8.324535002E-03 2.611541415E-01 5.141218096E-02 1.130127961E-01 -5.684629500E-03 8.626033323E+00
 -9.495281806E-01 -2.743080735E-02 2.612122174E-01 4.810546380E-02 1.106900331E-01 -5.365182986E-03 9.635734882E+00
 -9.533060404E-01 -6.588874932E-02 2.602430575E-01 4.474161964E-02 1.081446632E-01 -5.010947931E-03 1.074788603E+01
 -9.569403357E-01 -1.071070418E-01 2.580699839E-01 4.134201317E-02 1.053749578E-01 -4.623095826E-03 1.195896058E+01
 -9.604305194E-01 -1.510757750E-01 2.545124584E-01 3.792960531E-02 1.023801018E-01 -4.204814094E-03 1.325939414E+01
 -9.637760658E-01 -1.976986960E-01 2.493965087E-01 3.452852805E-02 9.915891959E-02 -3.761681364E-03 1.463245809E+01
 -9.669764710E-01 -2.467766030E-01 2.425694918E-01 3.116368159E-02 9.570840215E-02 -3.301850791E-03 1.605370343E+01
 -9.700312532E-01 -2.979959055E-01 2.339188749E-01 2.786041294E-02 9.202229137E-02 -2.835924547E-03 1.749133167E+01
 -9.729399522E-01 -3.509256393E-01 2.233935890E-01 2.464431278E-02 8.809013586E-02 -2.376426517E-03 1.890777370E+01
 -9.757021300E-01 -4.050256499E-01 2.110250940E-01 2.154111657E-02 8.389736166E-02 -1.936844224E-03 2.026256536E+01
 -9.783173707E-01 -4.596671926E-01 1.969439495E-01 1.857662917E-02 7.942687193E-02 -1.530311417E-03 2.151630229E+01
 -9.807852804E-01 -5.141649500E-01 1.813870302E-01 1.577653648E-02 7.466239907E-02 -1.168120117E-03 2.263510578E+01
 -9.831054874E-01 -5.678169212E-01 1.646911921E-01 1.316595579E-02 6.959336458E-02 -8.583447081E-04 2.359475034E+01
 -9.852776424E-01 -6.199465178E-01 1.472714721E-01 1.076861931E-02 6.422055402E-02 -6.048879559E-04 2.438352473E+01
 -9.873014182E-01 -6.699402909E-01 1.295856031E-01 8.605669487E-03 5.856162716E-02 -4.071917215E-04 2.500309914E+01
 -9.891765100E-01 -7.172754535E-01 1.120908301E-01 6.694144140E-03 5.265542055E-02 -2.606978819E-04 2.546714253E+01
 -9.909026354E-01 -7.615337008E-01 9.520211938E-02 5.045322234E-03 4.656420369E-02 -1.579411083E-04 2.579804463E+01
 -9.924795346E-01 -8.024010503E-01 7.926116562E-02 3.663167312E-03 4.037348762E-02 -8.998032493E-05 2.602262190E+01
 -9.939069700E-01 -8.396564575E-01 6.452237797E-02 2.543137981E-03 3.418951016E-02 -4.780398531E-05 2.616790191E+01
 -9.951847267E-01 -8.731538075E-01 5.115637103E-02 1.671624285E-03 2.813494184E-02 -2.340498556E-05 2.625789883E+01
 -9.963126122E-01 -9.028020962E-01 3.926605468E-02 1.026210801E-03 2.234351884E-02 -1.037708609E-05 2.631182437E+01
 -9.972904567E-01 -9.285474977E-01 2.890776895E-02 5.768653939E-04 1.695419966E-02 -4.055661656E-06 2.634366581E+01
 -9.981181129E-01 -9.503592947E-01 2.011078348E-02 2.880233103E-04 1.210518479E-02 -1.337948122E-06 2.636272550E+01
 -9.987954562E-01 -9.682200906E-01 1.289146758E-02 1.214037394E-04 7.927921627E-03 -3.458712786E-07 2.637463246E+01
 -9.993223846E-01 -9.821197310E-01 7.261433887E-03 3.928430332E-05 4.541121076E-03 -6.083774896E-08 2.638243820E+01
 -9.996988187E-01 -9.920519545E-01 3.230782237E-03 7.885748783E-06 2.044878020E-03 -5.294084329E-09 2.638757194E+01
 -9.999247018E-01 -9.980128013E-01 8.082539640E-04 4.976535920E-07 5.152817671E-04 -8.227016877E-11 2.639056886E+01
 -1.000000000E+00 -1.000000000E+00 0.000000000E+00 1.145945725E-15 9.759583294E-16 -6.809042984E-31 2.639156325E+01
ZONE T="Case C3000b (036md-less-019md(bbox:PG=4400):1962)"
 STRANDID=0, SOLUTIONTIME=0