VARIABLES = "x","cp"
ZONE T="CFL3D"
 -2.500000000E+01 1.222746680E-03
 -2.454554749E+01 1.222746680E-03
 -2.409935760E+01 1.222746680E-03
 -2.366127586E+01 1.222746680E-03
 -2.323115921E+01 1.222746680E-03
 -2.280886269E+01 1.222746680E-03
 -2.239424133E+01 1.222746680E-03
 -2.198715591E+01 1.222746680E-03
 -2.158747101E+01 1.222746680E-03
 -2.119505310E+01 1.222746680E-03
 -2.080976677E+01 1.222746680E-03
 -2.043148422E+01 1.222746680E-03
 -2.006007957E+01 1.222746680E-03
 -1.969542503E+01 1.222746680E-03
 -1.933740044E+01 1.222746680E-03
 -1.898588371E+01 1.222746680E-03
 -1.864075470E+01 1.222746680E-03
 -1.830190277E+01 1.222746680E-03
 -1.796920776E+01 1.222746680E-03
 -1.764256096E+01 1.222746680E-03
 -1.732185364E+01 1.222746680E-03
 -1.700697517E+01 1.222746680E-03
 -1.669782066E+01 1.222746680E-03
 -1.639428520E+01 1.222746680E-03
 -1.609626770E+01 1.222746680E-03
 -1.580366802E+01 1.222746680E-03
 -1.551638699E+01 1.222746680E-03
 -1.523432827E+01 1.222746680E-03
 -1.495739651E+01 1.222746680E-03
 -1.468549919E+01 1.222746680E-03
 -1.441854382E+01 1.222746680E-03
 -1.415644169E+01 1.222746680E-03
 -1.389910412E+01 1.222746680E-03
 -1.364644432E+01 1.222746680E-03
 -1.339837646E+01 1.222746680E-03
 -1.315481949E+01 1.225726912E-03
 -1.291568851E+01 1.225726912E-03
 -1.268090534E+01 1.225726912E-03
 -1.245038986E+01 1.225726912E-03
 -1.222406483E+01 1.225726912E-03
 -1.200185299E+01 1.225726912E-03
 -1.178368187E+01 1.225726912E-03
 -1.156947613E+01 1.225726912E-03
 -1.135916328E+01 1.225726912E-03
 -1.115267467E+01 1.225726912E-03
 -1.094993877E+01 1.225726912E-03
 -1.075088882E+01 1.228707144E-03
 -1.055545712E+01 1.228707144E-03
 -1.036357784E+01 1.228707144E-03
 -1.017518616E+01 1.228707144E-03
 -9.990220070E+00 1.231687376E-03
 -9.808614731E+00 1.231687376E-03
 -9.630311966E+00 1.231687376E-03
 -9.455249786E+00 1.234667609E-03
 -9.283370018E+00 1.234667609E-03
 -9.114614487E+00 1.234667609E-03
 -8.948925972E+00 1.237647841E-03
 -8.786250114E+00 1.237647841E-03
 -8.626531601E+00 1.240628073E-03
 -8.469716072E+00 1.240628073E-03
 -8.315751076E+00 1.243608305E-03
 -8.164585114E+00 1.246588537E-03
 -8.016166687E+00 1.249568770E-03
 -7.870445728E+00 1.249568770E-03
 -7.727374077E+00 1.252549002E-03
 -7.586903095E+00 1.255529234E-03
 -7.448986053E+00 1.258509466E-03
 -7.313575268E+00 1.261489699E-03
 -7.180626392E+00 1.267450163E-03
 -7.050094128E+00 1.270430395E-03
 -6.921934605E+00 1.273410628E-03
 -6.796104908E+00 1.279371092E-03
 -6.672562599E+00 1.282351324E-03
 -6.551265717E+00 1.288311789E-03
 -6.432173729E+00 1.294272253E-03
 -6.315246582E+00 1.297252486E-03
 -6.200444698E+00 1.303212950E-03
 -6.087729931E+00 1.309173414E-03
 -5.977064133E+00 1.318114111E-03
 -5.868409634E+00 1.324074576E-03
 -5.761730671E+00 1.330035040E-03
 -5.656990528E+00 1.338975737E-03
 -5.554154396E+00 1.347916434E-03
 -5.453187466E+00 1.356857130E-03
 -5.354055882E+00 1.365797827E-03
 -5.256726265E+00 1.374738524E-03
 -5.161166191E+00 1.383679220E-03
 -5.067342758E+00 1.395600149E-03
 -4.975224972E+00 1.404540846E-03
 -4.884781361E+00 1.416461775E-03
 -4.795981884E+00 1.428382704E-03
 -4.708796501E+00 1.440303633E-03
 -4.623196125E+00 1.455204794E-03
 -4.539151669E+00 1.467125723E-03
 -4.456634998E+00 1.482026884E-03
 -4.375617981E+00 1.496928046E-03
 -4.296073914E+00 1.511829207E-03
 -4.217975616E+00 1.529710600E-03
 -4.141296864E+00 1.544611761E-03
 -4.066011906E+00 1.562493155E-03
 -3.992095470E+00 1.580374548E-03
 -3.919522524E+00 1.598255942E-03
 -3.848268747E+00 1.619117567E-03
 -3.778310299E+00 1.639979193E-03
 -3.709623337E+00 1.660840819E-03
 -3.642184973E+00 1.681702444E-03
 -3.575972319E+00 1.702564070E-03
 -3.510963202E+00 1.726405928E-03
 -3.447135687E+00 1.750247786E-03
 -3.384468317E+00 1.774089644E-03
 -3.322940111E+00 1.800911734E-03
 -3.262530327E+00 1.827733824E-03
 -3.203218460E+00 1.854555914E-03
 -3.144984961E+00 1.881378004E-03
 -3.087809563E+00 1.911180327E-03
 -3.031673670E+00 1.940982649E-03
 -2.976557970E+00 1.970784971E-03
 -2.922444105E+00 2.003567526E-03
 -2.869313717E+00 2.036350081E-03
 -2.817149162E+00 2.069132635E-03
 -2.765932560E+00 2.101915190E-03
 -2.715646982E+00 2.137677977E-03
 -2.666275501E+00 2.173440764E-03
 -2.617801189E+00 2.212183783E-03
 -2.570208073E+00 2.250926802E-03
 -2.523479939E+00 2.289669821E-03
 -2.477601051E+00 2.331393072E-03
 -2.432555914E+00 2.370136091E-03
 -2.388329744E+00 2.414839575E-03
 -2.344907045E+00 2.456562826E-03
 -2.302273989E+00 2.501266310E-03
 -2.260415554E+00 2.548950026E-03
 -2.219317675E+00 2.596633742E-03
 -2.178966999E+00 2.644317457E-03
 -2.139349699E+00 2.692001173E-03
 -2.100452185E+00 2.742665121E-03
 -2.062261820E+00 2.793329069E-03
 -2.024765491E+00 2.846973250E-03
 -1.987950563E+00 2.900617430E-03
 -1.951804757E+00 2.957241843E-03
 -1.916315794E+00 3.013866255E-03
 -1.881471753E+00 3.070490668E-03
 -1.847261071E+00 3.130095312E-03
 -1.813671947E+00 3.189699957E-03
 -1.780693293E+00 3.252284834E-03
 -1.748314023E+00 3.314869711E-03
 -1.716523051E+00 3.380434820E-03
 -1.685309887E+00 3.445999930E-03
 -1.654663801E+00 3.511565039E-03
 -1.624574780E+00 3.580110380E-03
 -1.595032454E+00 3.648655722E-03
 -1.566026926E+00 3.720181296E-03
 -1.537548423E+00 3.791706869E-03
 -1.509587407E+00 3.866212675E-03
 -1.482134581E+00 3.940718714E-03
 -1.455180407E+00 4.018204752E-03
 -1.428716063E+00 4.095690791E-03
 -1.402732611E+00 4.173176829E-03
 -1.377221227E+00 4.253643099E-03
 -1.352173448E+00 4.337089602E-03
 -1.327580571E+00 4.420536105E-03
 -1.303434610E+00 4.503982607E-03
 -1.279727340E+00 4.590409342E-03
 -1.256450772E+00 4.679816309E-03
 -1.233597040E+00 4.769223277E-03
 -1.211158514E+00 4.858630244E-03
 -1.189127684E+00 4.951017443E-03
 -1.167496920E+00 5.046384875E-03
 -1.146259189E+00 5.138772074E-03
 -1.125407219E+00 5.237119738E-03
 -1.104933977E+00 5.335467402E-03
 -1.084832668E+00 5.433815066E-03
 -1.065096498E+00 5.535142962E-03
 -1.045718670E+00 5.636470858E-03
 -1.026692867E+00 5.740778986E-03
 -1.008012652E+00 5.845087115E-03
 -9.896716475E-01 5.898731295E-03
 -9.716637135E-01 6.059663836E-03
 -9.539828300E-01 6.169932429E-03
 -9.366229773E-01 6.280201022E-03
 -9.195784330E-01 6.393449847E-03
 -9.028432965E-01 6.506698672E-03
 -8.864120841E-01 6.619947497E-03
 -8.702791333E-01 6.736176554E-03
 -8.544391394E-01 6.855385844E-03
 -8.388866782E-01 6.974595133E-03
 -8.236165643E-01 7.093804423E-03
 -8.086236715E-01 7.215993945E-03
 -7.939029336E-01 7.338183466E-03
 -7.794493437E-01 7.463353220E-03
 -7.652581334E-01 7.588522974E-03
 -7.513244748E-01 7.716672961E-03
 -7.376436591E-01 7.844822481E-03
 -7.242110968E-01 7.972972468E-03
 -7.110222578E-01 8.104102686E-03
 -6.980727911E-01 8.235232905E-03
 -6.853582263E-01 8.369343355E-03
 -6.728742719E-01 8.503453806E-03
 -6.606168747E-01 8.637564257E-03
 -6.485817432E-01 8.774654940E-03
 -6.367649436E-01 8.911745623E-03
 -6.251624227E-01 9.051816538E-03
 -6.137703061E-01 9.191887453E-03
 -6.025847793E-01 9.331958368E-03
 -5.916020870E-01 9.475009516E-03
 -5.808184743E-01 9.615080431E-03
 -5.702303052E-01 9.761111811E-03
 -5.598340631E-01 9.904162958E-03
 -5.496262908E-01 1.005019434E-02
 -5.396034718E-01 1.019622572E-02
 -5.297622681E-01 1.034523733E-02
 -5.200993419E-01 1.049424894E-02
 -5.106114745E-01 1.064326055E-02
 -5.012954473E-01 1.079227217E-02
 -4.921481311E-01 1.094128378E-02
 -4.831664860E-01 1.109327562E-02
 -4.743474126E-01 1.124526747E-02
 -4.656880200E-01 1.139725931E-02
 -4.571853280E-01 1.155223139E-02
 -4.488365352E-01 1.170720346E-02
 -4.406387806E-01 1.185919531E-02
 -4.325893521E-01 1.201416738E-02
 -4.246855080E-01 1.217211969E-02
 -4.169245660E-01 1.232709177E-02
 -4.093039930E-01 1.248504408E-02
 -4.018211365E-01 1.264001615E-02
 -3.944735229E-01 1.279796846E-02
 -3.872586787E-01 1.295592077E-02
 -3.801741898E-01 1.311387308E-02
 -3.732176125E-01 1.327480562E-02
 -3.663866818E-01 1.343275793E-02
 -3.596790433E-01 1.359071024E-02
 -3.530924618E-01 1.375164278E-02
 -3.466247022E-01 1.390959509E-02
 -3.402736187E-01 1.407052763E-02
 -3.340370655E-01 1.423146017E-02
 -3.279129267E-01 1.438941248E-02
 -3.218991458E-01 1.455034502E-02
 -3.159936965E-01 1.471127756E-02
 -3.101946115E-01 1.487221010E-02
 -3.044999242E-01 1.503314264E-02
 -2.989077270E-01 1.519407518E-02
 -2.934161127E-01 1.535202749E-02
 -2.880232632E-01 1.551296003E-02
 -2.827273309E-01 1.567389257E-02
 -2.775265872E-01 1.583482511E-02
 -2.724192142E-01 1.599575765E-02
 -2.674035430E-01 1.615370996E-02
 -2.624778748E-01 1.631464250E-02
 -2.576405406E-01 1.647259481E-02
 -2.528899014E-01 1.663352735E-02
 -2.482243925E-01 1.679147966E-02
 -2.436424345E-01 1.695241220E-02
 -2.391424626E-01 1.711036451E-02
 -2.347229719E-01 1.726831682E-02
 -2.303824872E-01 1.742626913E-02
 -2.261195332E-01 1.758422144E-02
 -2.219326943E-01 1.774217375E-02
 -2.178205401E-01 1.790012605E-02
 -2.137816995E-01 1.805509813E-02
 -2.098148018E-01 1.821305044E-02
 -2.059185207E-01 1.836802252E-02
 -2.020915598E-01 1.852299459E-02
 -1.983325928E-01 1.867796667E-02
 -1.946403831E-01 1.883293875E-02
 -1.910136938E-01 1.898791082E-02
 -1.874512732E-01 1.913990267E-02
 -1.839519590E-01 1.929189451E-02
 -1.805145442E-01 1.944686659E-02
 -1.771378815E-01 1.959885843E-02
 -1.738208532E-01 1.975085028E-02
 -1.705623120E-01 1.989986189E-02
 -1.673611701E-01 2.005185373E-02
 -1.642163694E-01 2.020086534E-02
 -1.611268222E-01 2.034987696E-02
 -1.580915153E-01 2.049888857E-02
 -1.551094055E-01 2.064790018E-02
 -1.521795094E-01 2.079691179E-02
 -1.493008286E-01 2.094294317E-02
 -1.464723945E-01 2.108897455E-02
 -1.436932534E-01 2.123500593E-02
 -1.409624815E-01 2.138103731E-02
 -1.382791400E-01 2.152706869E-02
 -1.356423497E-01 2.167011984E-02
 -1.330512166E-01 2.181317098E-02
 -1.305048466E-01 2.195622213E-02
 -1.280024052E-01 2.209927328E-02
 -1.255430430E-01 2.224232443E-02
 -1.231259406E-01 2.238239534E-02
 -1.207502708E-01 2.252544649E-02
 -1.184152439E-01 2.266551740E-02
 -1.161200702E-01 2.280260809E-02
 -1.138639748E-01 2.294267900E-02
 -1.116462052E-01 2.308274992E-02
 -1.094660088E-01 2.321984060E-02
 -1.073226556E-01 2.335693128E-02
 -1.052154228E-01 2.349402197E-02
 -1.031436026E-01 2.363111265E-02
 -1.011064947E-01 2.376820333E-02
 -9.910341352E-02 2.390231378E-02
 -9.713368863E-02 2.403940447E-02
 -9.519665688E-02 2.417351492E-02
 -9.329166263E-02 2.430762537E-02
 -9.141806513E-02 2.444173582E-02
 -8.957523853E-02 2.457584627E-02
 -8.776255697E-02 2.470697649E-02
 -8.597940952E-02 2.484108694E-02
 -8.422520012E-02 2.497221716E-02
 -8.249934018E-02 2.510632761E-02
 -8.080124855E-02 2.523745783E-02
 -7.913035154E-02 2.536858805E-02
 -7.748608291E-02 2.549971826E-02
 -7.586789131E-02 2.563084848E-02
 -7.427524030E-02 2.576197870E-02
 -7.270757854E-02 2.589310892E-02
 -7.116439939E-02 2.602125891E-02
 -6.964515895E-02 2.615238912E-02
 -6.814936548E-02 2.628351934E-02
 -6.667650491E-02 2.641166933E-02
 -6.522608548E-02 2.654279955E-02
 -6.379762292E-02 2.667392977E-02
 -6.239062548E-02 2.680207975E-02
 -6.100463122E-02 2.693320997E-02
 -5.963916704E-02 2.706434019E-02
 -5.829377472E-02 2.719547041E-02
 -5.696799979E-02 2.732660063E-02
 -5.566140264E-02 2.745773084E-02
 -5.437353626E-02 2.758886106E-02
 -5.310396850E-02 2.771999128E-02
 -5.185227469E-02 2.785112150E-02
 -5.061803013E-02 2.798523195E-02
 -4.940082505E-02 2.811934240E-02
 -4.820024595E-02 2.825047262E-02
 -4.701588675E-02 2.838756330E-02
 -4.584735259E-02 2.852167375E-02
 -4.469424859E-02 2.865876444E-02
 -4.355618730E-02 2.879585512E-02
 -4.243278503E-02 2.893294580E-02
 -4.132366180E-02 2.907301672E-02
 -4.022844881E-02 2.921308763E-02
 -3.914677724E-02 2.935613878E-02
 -3.807827830E-02 2.949918993E-02
 -3.702259436E-02 2.964522131E-02
 -3.597937152E-02 2.979423292E-02
 -3.494825587E-02 2.994324453E-02
 -3.392890468E-02 3.009225614E-02
 -3.292097151E-02 3.024722822E-02
 -3.192412108E-02 3.040220030E-02
 -3.093801253E-02 3.056015261E-02
 -2.996231616E-02 3.072406538E-02
 -2.899670415E-02 3.088797815E-02
 -2.804085240E-02 3.105487116E-02
 -2.709443681E-02 3.114129789E-02
 -2.615714073E-02 3.140654042E-02
 -2.522864752E-02 3.158535436E-02
 -2.430864610E-02 3.177310899E-02
 -2.339682542E-02 3.196384385E-02
 -2.249288000E-02 3.216053918E-02
 -2.159650251E-02 3.236617520E-02
 -2.070739679E-02 3.257777169E-02
 -1.982525736E-02 3.279830888E-02
 -1.894979179E-02 3.302778676E-02
 -1.808070391E-02 3.326620534E-02
 -1.721770130E-02 3.351952508E-02
 -1.636049338E-02 3.378178552E-02
 -1.550879143E-02 3.406192735E-02
 -1.466230955E-02 3.435697034E-02
 -1.382076181E-02 3.467287496E-02
 -1.298386604E-02 3.501262143E-02
 -1.215134002E-02 3.537620977E-02
 -1.132290438E-02 3.576960042E-02
 -1.049827877E-02 3.620173410E-02
 -9.677186608E-03 3.667857125E-02
 -8.859351277E-03 3.720905259E-02
 -8.044498041E-03 3.780509904E-02
 -7.232351694E-03 3.849055246E-02
 -6.422639824E-03 3.929819539E-02
 -5.615089089E-03 4.028763250E-02
 -4.809428938E-03 4.146184400E-02
 -4.005386960E-03 4.274036363E-02
 -3.202693071E-03 4.429306462E-02
 -2.401077189E-03 4.758920148E-02
 -1.600269228E-03 5.630340055E-02
 -7.999999798E-04 6.964291632E-02
 2.780639759E-16 6.290461123E-02
 7.999999798E-04 3.505434468E-02
 1.606264967E-03 2.408410795E-02
 2.418837277E-03 2.642657049E-02
 3.237759229E-03 2.614046820E-02
 4.063073546E-03 2.677525766E-02
 4.894822836E-03 2.711202390E-02
 5.733050406E-03 2.741898783E-02
 6.577799562E-03 2.761568315E-02
 7.429112680E-03 2.775873430E-02
 8.287033997E-03 2.786602266E-02
 9.151606821E-03 2.794946916E-02
 1.002287492E-02 2.801801451E-02
 1.090088207E-02 2.807761915E-02
 1.178567298E-02 2.813424356E-02
 1.267729141E-02 2.818490751E-02
 1.357578207E-02 2.823855169E-02
 1.448118873E-02 2.829219587E-02
 1.539355703E-02 2.834882028E-02
 1.631293073E-02 2.840842493E-02
 1.723935641E-02 2.847399004E-02
 1.817287691E-02 2.854849584E-02
 1.911354065E-02 2.863492258E-02
 2.006139047E-02 2.873625048E-02
 2.101647109E-02 2.885545976E-02
 2.197883092E-02 2.899553068E-02
 2.294851467E-02 2.915646322E-02
 2.392556891E-02 2.934719808E-02
 2.491003834E-02 2.956177481E-02
 2.590196952E-02 2.980019338E-02
 2.690140903E-02 3.005649336E-02
 2.790840343E-02 3.032769449E-02
 2.892299928E-02 3.060485609E-02
 2.994524129E-02 3.087605722E-02
 3.097517975E-02 3.113831766E-02
 3.201285750E-02 3.138269857E-02
 3.305832669E-02 3.160621598E-02
 3.411163017E-02 3.180589154E-02
 3.517281637E-02 3.198470548E-02
 3.624192998E-02 3.213669732E-02
 3.731902316E-02 3.226782754E-02
 3.840414062E-02 3.238107637E-02
 3.949733078E-02 3.247644380E-02
 4.059864208E-02 3.255989030E-02
 4.170811921E-02 3.263141587E-02
 4.282581061E-02 3.269400075E-02
 4.395176470E-02 3.275062516E-02
 4.508602992E-02 3.280426934E-02
 4.622865468E-02 3.285195306E-02
 4.737968370E-02 3.290261701E-02
 4.853916913E-02 3.295030072E-02
 4.970715567E-02 3.299798444E-02
 5.088369548E-02 3.304864839E-02
 5.206883326E-02 3.310229257E-02
 5.326262116E-02 3.315593675E-02
 5.446510017E-02 3.321256116E-02
 5.567632616E-02 3.327216581E-02
 5.689634383E-02 3.333177045E-02
 5.812519789E-02 3.339733556E-02
 5.936294422E-02 3.346588090E-02
 6.060962752E-02 3.353740647E-02
 6.186529621E-02 3.360893205E-02
 6.312999874E-02 3.368641809E-02
 6.440377980E-02 3.376688436E-02
 6.568669528E-02 3.384735063E-02
 6.697878242E-02 3.393377736E-02
 6.828010082E-02 3.402318433E-02
 6.959069520E-02 3.411259130E-02
 7.091061771E-02 3.420795873E-02
 7.223990560E-02 3.430332616E-02
 7.357861102E-02 3.440167382E-02
 7.492678612E-02 3.450300172E-02
 7.628447562E-02 3.461029008E-02
 7.765173167E-02 3.471757844E-02
 7.902859896E-02 3.482784703E-02
 8.041512221E-02 3.493811563E-02
 8.181135356E-02 3.505434468E-02
 8.321733773E-02 3.517355397E-02
 8.463312685E-02 3.529276326E-02
 8.605875820E-02 3.541793302E-02
 8.749429882E-02 3.554310277E-02
 8.893977106E-02 3.567125276E-02
 9.039524198E-02 3.580238298E-02
 9.186074883E-02 3.593947366E-02
 9.333634377E-02 3.607656434E-02
 9.482206404E-02 3.621663526E-02
 9.631796926E-02 3.635968640E-02
 9.782408923E-02 3.650273755E-02
 9.934049100E-02 3.665174916E-02
 1.008672044E-01 3.680374101E-02
 1.024042815E-01 3.695871308E-02
 1.039517671E-01 3.711666539E-02
 1.055097058E-01 3.727759793E-02
 1.070781425E-01 3.744151071E-02
 1.086571217E-01 3.760840371E-02
 1.102466956E-01 3.777827695E-02
 1.118469015E-01 3.795113042E-02
 1.134577915E-01 3.812994435E-02
 1.150793955E-01 3.830875829E-02
 1.167117655E-01 3.849353269E-02
 1.183549538E-01 3.868128732E-02
 1.200089902E-01 3.887202218E-02
 1.216739267E-01 3.906573728E-02
 1.233498007E-01 3.926243261E-02
 1.250366569E-01 3.946508840E-02
 1.267345399E-01 3.967072442E-02
 1.284434944E-01 3.987934068E-02
 1.301635504E-01 4.009391740E-02
 1.318947524E-01 4.031147435E-02
 1.336371601E-01 4.053499177E-02
 1.353907883E-01 4.076148942E-02
 1.371556818E-01 4.099096730E-02
 1.389319003E-01 4.122640565E-02
 1.407194734E-01 4.146482423E-02
 1.425184160E-01 4.170920327E-02
 1.443288028E-01 4.195954278E-02
 1.461506635E-01 4.221286252E-02
 1.479840279E-01 4.247214273E-02
 1.498289257E-01 4.273440316E-02
 1.516854167E-01 4.300560430E-02
 1.535535157E-01 4.327978566E-02
 1.554332823E-01 4.355694726E-02
 1.573247313E-01 4.384304956E-02
 1.592279077E-01 4.413511232E-02
 1.611428410E-01 4.443015531E-02
 1.630695611E-01 4.473413900E-02
 1.650081277E-01 4.504110292E-02
 1.669585407E-01 4.535700753E-02
 1.689208597E-01 4.567887262E-02
 1.708951145E-01 4.600371793E-02
 1.728813201E-01 4.634048417E-02
 1.748795062E-01 4.668023065E-02
 1.768897325E-01 4.702891782E-02
 1.789119989E-01 4.738356546E-02
 1.809463501E-01 4.774715379E-02
 1.829928160E-01 4.811670259E-02
 1.850514114E-01 4.849519208E-02
 1.871221811E-01 4.888262227E-02
 1.892051548E-01 4.927601293E-02
 1.913003325E-01 4.968132451E-02
 1.934077740E-01 5.009259656E-02
 1.955274791E-01 5.051280931E-02
 1.976594776E-01 5.094196275E-02
 1.998037994E-01 5.138303712E-02
 2.019604743E-01 5.206551030E-02
 2.041295022E-01 5.229498819E-02
 2.063109279E-01 5.275990441E-02
 2.085047662E-01 5.323972180E-02
 2.107110322E-01 5.372847989E-02
 2.129297554E-01 5.423213914E-02
 2.151609361E-01 5.474473909E-02
 2.174046040E-01 5.527224019E-02
 2.196607888E-01 5.580868199E-02
 2.219294906E-01 5.636002496E-02
 2.242107242E-01 5.692328885E-02
 2.265045196E-01 5.750145391E-02
 2.288108766E-01 5.809452012E-02
 2.311298251E-01 5.869950727E-02
 2.334613651E-01 5.932237580E-02
 2.358054966E-01 5.996014550E-02
 2.381622493E-01 6.061281636E-02
 2.405316383E-01 6.128336862E-02
 2.429136485E-01 6.197180226E-02
 2.453083098E-01 6.267811358E-02
 2.477156222E-01 6.340231001E-02
 2.501356006E-01 6.414438784E-02
 2.525682449E-01 6.491030753E-02
 2.550135255E-01 6.569410861E-02
 2.574715018E-01 6.650175154E-02
 2.599421442E-01 6.733323634E-02
 2.624254823E-01 6.818558276E-02
 2.649214864E-01 6.906475127E-02
 2.674301565E-01 6.997074187E-02
 2.699515224E-01 7.090057433E-02
 2.724855542E-01 7.186318934E-02
 2.750322521E-01 7.285262644E-02
 2.775916159E-01 7.387484610E-02
 2.801636457E-01 7.492984831E-02
 2.827483416E-01 7.602061331E-02
 2.853456736E-01 7.714714110E-02
 2.879556417E-01 7.831241190E-02
 2.905782461E-01 7.951940596E-02
 2.932134569E-01 8.077110350E-02
 2.958613038E-01 8.206750453E-02
 2.985217273E-01 8.341754973E-02
 3.011947274E-01 8.482123911E-02
 3.038803041E-01 8.628453314E-02
 3.065784574E-01 8.781041205E-02
 3.092890978E-01 8.940483630E-02
 3.120122850E-01 9.107078612E-02
 3.147479594E-01 9.280826151E-02
 3.174961209E-01 9.462024271E-02
 3.202567399E-01 9.650374949E-02
 3.230297565E-01 9.846176207E-02
 3.258152306E-01 1.004942805E-01
 3.286130428E-01 1.026013047E-01
 3.314232230E-01 1.047798544E-01
 3.342457414E-01 1.070269495E-01
 3.370805681E-01 1.093425900E-01
 3.399276435E-01 1.117208153E-01
 3.427869678E-01 1.141616255E-01
 3.456584811E-01 1.166620404E-01
 3.485421836E-01 1.192190796E-01
 3.514380157E-01 1.218267828E-01
 3.543459177E-01 1.244732291E-01
 3.572659194E-01 1.271584183E-01
 3.601979017E-01 1.298883110E-01
 3.631418645E-01 1.326480061E-01
 3.660977483E-01 1.354196221E-01
 3.690654933E-01 1.382091194E-01
 3.720450699E-01 1.410284191E-01
 3.750364482E-01 1.438328177E-01
 3.780395389E-01 1.466223150E-01
 3.810542822E-01 1.494356543E-01
 3.840806186E-01 1.522042900E-01
 3.871185184E-01 1.549431235E-01
 3.901678622E-01 1.576759964E-01
 3.932286203E-01 1.603254229E-01
 3.963007331E-01 1.629688889E-01
 3.993840814E-01 1.655289084E-01
 4.024785757E-01 1.680114418E-01
 4.055841863E-01 1.704433113E-01
 4.087007940E-01 1.727708727E-01
 4.118283093E-01 1.750209481E-01
 4.149666429E-01 1.771577746E-01
 4.181156456E-01 1.791932732E-01
 4.212752879E-01 1.811065823E-01
 4.244453907E-01 1.828857809E-01
 4.276258647E-01 1.845457703E-01
 4.308166206E-01 1.860358864E-01
 4.340174794E-01 1.874038130E-01
 4.372283220E-01 1.885750443E-01
 4.404490292E-01 1.895972639E-01
 4.436794519E-01 1.904466301E-01
 4.469194710E-01 1.910575777E-01
 4.501688778E-01 1.915433556E-01
 4.534275532E-01 1.917609125E-01
 4.566953778E-01 1.917966753E-01
 4.599721134E-01 1.916238219E-01
 4.632576406E-01 1.911529452E-01
 4.665518105E-01 1.905151755E-01
 4.698544145E-01 1.896121651E-01
 4.731652737E-01 1.883932501E-01
 4.764842689E-01 1.869776398E-01
 4.798111618E-01 1.852789074E-01
 4.831458032E-01 1.832523495E-01
 4.864880145E-01 1.809575707E-01
 4.898376465E-01 1.784064919E-01
 4.931944907E-01 1.755037457E-01
 4.965583980E-01 1.722612530E-01
 4.999292195E-01 1.687445790E-01
 5.033067465E-01 1.649060398E-01
 5.066908002E-01 1.606890112E-01
 5.100812912E-01 1.561232954E-01
 5.134780407E-01 1.512237936E-01
 5.168808699E-01 1.459934860E-01
 5.202897191E-01 1.403638273E-01
 5.237043500E-01 1.343348175E-01
 5.271247625E-01 1.279601008E-01
 5.305507779E-01 1.211890131E-01
 5.339823365E-01 1.140543371E-01
 5.374191999E-01 1.064934880E-01
 5.408614874E-01 9.850944579E-02
 5.443089604E-01 9.014393389E-02
 5.477616787E-01 8.136714995E-02
 5.512195230E-01 7.217313349E-02
 5.546824932E-01 6.257380545E-02
 5.581504703E-01 5.253638700E-02
 5.616235137E-01 4.206087068E-02
 5.651015639E-01 3.117706068E-02
 5.685847402E-01 1.986707933E-02
 5.720728636E-01 8.136885241E-03
 5.755661130E-01 -4.022461828E-03
 5.790644884E-01 -1.659904234E-02
 5.825679898E-01 -2.959881537E-02
 5.860767365E-01 -4.301879928E-02
 5.895906687E-01 -5.684707686E-02
 5.931099653E-01 -7.107768953E-02
 5.966346264E-01 -8.570466936E-02
 6.001648307E-01 -1.007160991E-01
 6.037005186E-01 -1.161060184E-01
 6.072419286E-01 -1.318565458E-01
 6.107890606E-01 -1.479617208E-01
 6.143419743E-01 -1.643977016E-01
 6.179008484E-01 -1.811495870E-01
 6.214657426E-01 -1.982024759E-01
 6.250367761E-01 -2.155265659E-01
 6.286140084E-01 -2.331009954E-01
 6.321974993E-01 -2.509019077E-01
 6.357874274E-01 -2.688965499E-01
 6.393837333E-01 -2.870551050E-01
 6.429865360E-01 -3.053447902E-01
 6.465959549E-01 -3.237238824E-01
 6.502119303E-01 -3.421595991E-01
 6.538345814E-01 -3.606072366E-01
 6.574639082E-01 -3.790250719E-01
 6.610997915E-01 -3.973594606E-01
 6.647424102E-01 -4.155686796E-01
 6.683915854E-01 -4.335990846E-01
 6.720473170E-01 -4.513940513E-01
 6.757094860E-01 -4.689029157E-01
 6.793780923E-01 -4.860630929E-01
 6.830529571E-01 -5.028239489E-01
 6.867339015E-01 -5.191198587E-01
 6.904208660E-01 -5.348942280E-01
 6.941135526E-01 -5.500814915E-01
 6.978118420E-01 -5.646548271E-01
 7.015154362E-01 -5.784592628E-01
 7.052240968E-01 -5.914500952E-01
 7.089375854E-01 -6.036571264E-01
 7.126555443E-01 -6.149760485E-01
 7.163776159E-01 -6.253681183E-01
 7.201035023E-01 -6.347707510E-01
 7.238328457E-01 -6.431720257E-01
 7.275652289E-01 -6.504855156E-01
 7.313002348E-01 -6.565949917E-01
 7.350375056E-01 -6.615570784E-01
 7.387765050E-01 -6.653866768E-01
 7.425169349E-01 -6.680241823E-01
 7.462582588E-01 -6.694517136E-01
 7.500000000E-01 -6.698570251E-01
 7.537417412E-01 -6.687245369E-01
 7.574830651E-01 -6.663910151E-01
 7.612234950E-01 -6.629488468E-01
 7.649624944E-01 -6.583205462E-01
 7.686997652E-01 -6.525388956E-01
 7.724347711E-01 -6.456575394E-01
 7.761671543E-01 -6.376734972E-01
 7.798964977E-01 -6.285539865E-01
 7.836223841E-01 -6.184390783E-01
 7.873444557E-01 -6.074122190E-01
 7.910624146E-01 -5.954942703E-01
 7.947759032E-01 -5.827448368E-01
 7.984845638E-01 -5.692145824E-01
 8.021881580E-01 -5.550018549E-01
 8.058864474E-01 -5.400947332E-01
 8.095791340E-01 -5.245558023E-01
 8.132660985E-01 -5.085281134E-01
 8.169470429E-01 -4.920414388E-01
 8.206219077E-01 -4.751614034E-01
 8.242905140E-01 -4.579505622E-01
 8.279526830E-01 -4.404715002E-01
 8.316084146E-01 -4.227778614E-01
 8.352575898E-01 -4.049352109E-01
 8.389002085E-01 -3.869912326E-01
 8.425360918E-01 -3.690085113E-01
 8.461654186E-01 -3.510287702E-01
 8.497880697E-01 -3.331086338E-01
 8.534040451E-01 -3.152868450E-01
 8.570134640E-01 -2.976081073E-01
 8.606162667E-01 -2.801141441E-01
 8.642125726E-01 -2.628347576E-01
 8.678025007E-01 -2.458087057E-01
 8.713859916E-01 -2.290627807E-01
 8.749632239E-01 -2.126267999E-01
 8.785342574E-01 -1.965186447E-01
 8.820991516E-01 -1.807621568E-01
 8.856580257E-01 -1.653752178E-01
 8.892109394E-01 -1.503727287E-01
 8.927580714E-01 -1.357606500E-01
 8.962994814E-01 -1.215568632E-01
 8.998351693E-01 -1.077643484E-01
 9.033653736E-01 -9.438608587E-02
 9.068900347E-01 -8.142505586E-02
 9.104093313E-01 -6.888423860E-02
 9.139232635E-01 -5.676065013E-02
 9.174320102E-01 -4.504833743E-02
 9.209355116E-01 -3.374431655E-02
 9.244338870E-01 -2.284560911E-02
 9.279271364E-01 -1.234625094E-02
 9.314152598E-01 -2.234322717E-03
 9.348984361E-01 7.496135775E-03
 9.383764863E-01 1.685108431E-02
 9.418495297E-01 2.583648451E-02
 9.453175068E-01 3.447319940E-02
 9.487804770E-01 4.276122525E-02
 9.522383213E-01 5.069460347E-02
 9.556910396E-01 5.830611661E-02
 9.591385126E-01 6.558980048E-02
 9.625808001E-01 7.255460322E-02
 9.660176635E-01 7.922734320E-02
 9.694492221E-01 8.559311926E-02
 9.728752375E-01 9.164895117E-02
 9.762956500E-01 9.742762148E-02
 9.797102809E-01 1.029172093E-01
 9.831191301E-01 1.081504971E-01
 9.865219593E-01 1.131066233E-01
 9.899187088E-01 1.177796274E-01
 9.933091998E-01 1.221993119E-01
 9.966932535E-01 1.263746172E-01
 1.000070810E+00 1.303055435E-01
 1.003441572E+00 1.339682490E-01
 1.006805539E+00 1.373835951E-01
 1.010162354E+00 1.405843645E-01
 1.013512015E+00 1.435467154E-01
 1.016854167E+00 1.462527663E-01
 1.020188808E+00 1.487412602E-01
 1.023515701E+00 1.510270983E-01
 1.026834726E+00 1.530685574E-01
 1.030145645E+00 1.548775584E-01
 1.033448219E+00 1.565166861E-01
 1.036742330E+00 1.579233557E-01
 1.040027857E+00 1.591005474E-01
 1.043304682E+00 1.601257473E-01
 1.046572447E+00 1.609155089E-01
 1.049831152E+00 1.615175158E-01
 1.053080559E+00 1.619556099E-01
 1.056320548E+00 1.621701866E-01
 1.059551001E+00 1.622506529E-01
 1.062771678E+00 1.621284634E-01
 1.065982580E+00 1.618453413E-01
 1.069183350E+00 1.614132077E-01
 1.072374105E+00 1.608052403E-01
 1.075554609E+00 1.600691229E-01
 1.078724742E+00 1.591750532E-01
 1.081884384E+00 1.581528336E-01
 1.085033417E+00 1.569965035E-01
 1.088171721E+00 1.557179838E-01
 1.091299176E+00 1.543291956E-01
 1.094415784E+00 1.528211981E-01
 1.097521424E+00 1.512267739E-01
 1.100615978E+00 1.495220810E-01
 1.103699327E+00 1.477458626E-01
 1.106771350E+00 1.458891779E-01
 1.109832168E+00 1.439401060E-01
 1.112881541E+00 1.419582516E-01
 1.115919352E+00 1.398899704E-01
 1.118945718E+00 1.377918869E-01
 1.121960521E+00 1.356520802E-01
 1.124963522E+00 1.334556490E-01
 1.127954960E+00 1.312532574E-01
 1.130934477E+00 1.290240437E-01
 1.133902311E+00 1.267680079E-01
 1.136858106E+00 1.245179325E-01
 1.139802098E+00 1.222648770E-01
 1.142734051E+00 1.200088412E-01
 1.145654082E+00 1.177617460E-01
 1.148561954E+00 1.155355126E-01
 1.151457787E+00 1.133301407E-01
 1.154341459E+00 1.111456305E-01
 1.157212973E+00 1.089909226E-01
 1.160072327E+00 1.068719774E-01
 1.162919402E+00 1.047887951E-01
 1.165754199E+00 1.027503163E-01
 1.168576717E+00 1.007535607E-01
 1.171386957E+00 9.880150855E-02
 1.174184799E+00 9.690012038E-02
 1.176970243E+00 9.504939616E-02
 1.179743290E+00 9.325231612E-02
 1.182503939E+00 9.150888026E-02
 1.185252070E+00 8.981610835E-02
 1.187987685E+00 8.818294108E-02
 1.190710902E+00 8.660043776E-02
 1.193421602E+00 8.507157862E-02
 1.196119666E+00 8.359636366E-02
 1.198805213E+00 8.217181265E-02
 1.201478243E+00 8.079792559E-02
 1.204138756E+00 7.946576178E-02
 1.206786513E+00 7.817830145E-02
 1.209421754E+00 7.693256438E-02
 1.212044358E+00 7.572259009E-02
 1.214654326E+00 7.454837859E-02
 1.217251658E+00 7.340992987E-02
 1.219836354E+00 7.230426371E-02
 1.222408414E+00 7.122839987E-02
 1.224967718E+00 7.018233836E-02
 1.227514505E+00 6.916607916E-02
 1.230048537E+00 6.817962229E-02
 1.232569814E+00 6.721700728E-02
 1.235078573E+00 6.627823412E-02
 1.237574458E+00 6.536628306E-02
 1.240057826E+00 6.447817385E-02
 1.242528439E+00 6.361092627E-02
 1.244986415E+00 6.276454031E-02
 1.247431755E+00 6.194199994E-02
 1.249864459E+00 6.113733724E-02
 1.252284408E+00 6.035055593E-02
 1.254691720E+00 5.958463624E-02
 1.257086396E+00 5.883659795E-02
 1.259468317E+00 5.810644105E-02
 1.261837721E+00 5.739416555E-02
 1.264194489E+00 5.669381097E-02
 1.266538620E+00 5.601431802E-02
 1.268870234E+00 5.534674600E-02
 1.271189094E+00 5.469407514E-02
 1.273495436E+00 5.405630544E-02
 1.275789261E+00 5.343343690E-02
 1.278070450E+00 5.282248929E-02
 1.280339241E+00 5.222346261E-02
 1.282595396E+00 5.163635686E-02
 1.284839034E+00 5.106415227E-02
 1.287070274E+00 5.050088838E-02
 1.289288998E+00 4.994954541E-02
 1.291495204E+00 4.941012338E-02
 1.293689013E+00 4.888262227E-02
 1.295870543E+00 4.836108163E-02
 1.298039556E+00 4.759516194E-02
 1.300196171E+00 4.735376313E-02
 1.302340508E+00 4.686798528E-02
 1.304472566E+00 4.639114812E-02
 1.306592226E+00 4.592325166E-02
 1.308699608E+00 4.546131566E-02
 1.310794830E+00 4.501130059E-02
 1.312877774E+00 4.456724599E-02
 1.314948559E+00 4.412915185E-02
 1.317007184E+00 4.370297864E-02
 1.319053650E+00 4.327978566E-02
 1.321087956E+00 4.286851361E-02
 1.323110223E+00 4.246022180E-02