# turbulence results for k-kL-MEAH2015 model at x=0.75 
VARIABLES = "kL","k","mu_t","y-0.05"
ZONE T="CFL3D"
 0.000000000E+00 0.000000000E+00 0.000000000E+00 0.000000000E+00
 5.724271546E-08 4.382573238E-08 1.459847699E-04 7.458031064E-07
 2.651198656E-07 1.226442521E-07 4.041761858E-04 1.241266773E-06
 7.280012824E-07 2.407714419E-07 7.921034703E-04 1.736730383E-06
 1.548789328E-06 3.983324177E-07 1.310153282E-03 2.235919283E-06
 2.831307029E-06 5.954404401E-07 1.958938316E-03 2.731382892E-06
 4.680564416E-06 8.322229519E-07 2.739250427E-03 3.230571792E-06
 7.203024325E-06 1.108827632E-06 3.652050393E-03 3.729760692E-06
 1.050687024E-05 1.425422965E-06 4.698465113E-03 4.232674655E-06
 1.470227107E-05 1.782198865E-06 5.879785400E-03 4.735588846E-06
 1.990165038E-05 2.179366220E-06 7.197469473E-03 5.242228326E-06
 2.621994645E-05 2.617155815E-06 8.653138764E-03 5.748867807E-06
 3.377489338E-05 3.095818101E-06 1.024858281E-02 6.255507287E-06
 4.268726843E-05 3.615620926E-06 1.198575646E-02 6.769597348E-06
 5.308118489E-05 4.176850325E-06 1.386678312E-02 7.283687410E-06
 6.508433580E-05 4.779806659E-06 1.589395478E-02 7.801502761E-06
 7.882827049E-05 5.424805749E-06 1.806973852E-02 8.323043403E-06
 9.444869647E-05 6.112176379E-06 2.039676160E-02 8.848309335E-06
 1.120856832E-04 6.842258699E-06 2.287783660E-02 9.373575267E-06
 1.318839641E-04 7.615401955E-06 2.551594377E-02 9.906291780E-06
 1.539932709E-04 8.431963579E-06 2.831424028E-02 1.044273358E-05
 1.785684290E-04 9.292309187E-06 3.127606586E-02 1.098290068E-05
 2.057698730E-04 1.019680622E-05 3.440492973E-02 1.152679306E-05
 2.357636695E-04 1.114582483E-05 3.770453110E-02 1.207813602E-05
 2.687219821E-04 1.213973519E-05 4.117875546E-02 1.262947899E-05
 3.048231883E-04 1.317890838E-05 4.483167455E-02 1.319199782E-05
 3.442522429E-04 1.426370727E-05 4.866753891E-02 1.375451666E-05
 3.872009693E-04 1.539448931E-05 5.269080028E-02 1.432448607E-05
 4.338682338E-04 1.657160828E-05 5.690610409E-02 1.490190607E-05
 4.844602954E-04 1.779539889E-05 6.131829694E-02 1.548305227E-05
 5.391910090E-04 1.906618490E-05 6.593242288E-02 1.607164813E-05
 5.982821458E-04 2.038427556E-05 7.075372338E-02 1.666769458E-05
 6.619636551E-04 2.174996007E-05 7.578767091E-02 1.726746632E-05
 7.304740138E-04 2.316350947E-05 8.103994280E-02 1.787841393E-05
 8.040601970E-04 2.462516750E-05 8.651641011E-02 1.849308683E-05
 8.829784347E-04 2.613515062E-05 9.222321212E-02 1.911521031E-05
 9.674940957E-04 2.769364983E-05 9.816666692E-02 1.974850966E-05
 1.057882095E-03 2.930082519E-05 1.043533757E-01 2.038553430E-05
 1.154427067E-03 3.095679858E-05 1.107901558E-01 2.103373481E-05
 1.257424010E-03 3.266165731E-05 1.174840629E-01 2.168938590E-05
 1.367178163E-03 3.441545778E-05 1.244424134E-01 2.235621287E-05
 1.484005712E-03 3.621819997E-05 1.316727996E-01 2.303049041E-05
 1.608233433E-03 3.806985478E-05 1.391830891E-01 2.371221854E-05
 1.740199747E-03 3.997034219E-05 1.469813883E-01 2.440512253E-05
 1.880254480E-03 4.191953121E-05 1.550761163E-01 2.510920240E-05
 2.028759802E-03 4.391724724E-05 1.634760052E-01 2.582445813E-05
 2.186089521E-03 4.596326471E-05 1.721900851E-01 2.654716445E-05
 2.352630952E-03 4.805729623E-05 1.812276840E-01 2.728104664E-05
 2.528783865E-03 5.019901801E-05 1.905984581E-01 2.802610470E-05
 2.714961069E-03 5.238802987E-05 2.003124952E-01 2.878233863E-05
 2.911590505E-03 5.462388799E-05 2.103801221E-01 2.955347372E-05
 3.119112924E-03 5.690608668E-05 2.208121121E-01 3.033205940E-05
 3.337984206E-03 5.923405843E-05 2.316195816E-01 3.112554623E-05
 3.568675602E-03 6.160717749E-05 2.428141236E-01 3.193393422E-05
 3.811673494E-03 6.402476720E-05 2.544076741E-01 3.274977280E-05
 4.067481030E-03 6.648607814E-05 2.664126456E-01 3.358423783E-05
 4.336616956E-03 6.899030268E-05 2.788419127E-01 3.442987872E-05
 4.619617946E-03 7.153657498E-05 2.917087972E-01 3.529042078E-05
 4.917038139E-03 7.412397099E-05 3.050271869E-01 3.616213871E-05
 5.229450762E-03 7.675150118E-05 3.188113570E-01 3.705248309E-05
 5.557445809E-03 7.941811782E-05 3.330762982E-01 3.795400335E-05
 5.901635624E-03 8.212270768E-05 3.478374481E-01 3.887415005E-05
 6.262651179E-03 8.486412844E-05 3.631108999E-01 3.980919792E-05
 6.641145796E-03 8.764113591E-05 3.789132833E-01 4.076287223E-05
 7.037793286E-03 9.045247862E-05 3.952619731E-01 4.172772242E-05
 7.453290746E-03 9.329679597E-05 4.121749401E-01 4.271492435E-05
 7.888359018E-03 9.617274191E-05 4.296709001E-01 4.371702744E-05
 8.343743160E-03 9.907884669E-05 4.477692544E-01 4.473775698E-05
 8.820212446E-03 1.020136624E-04 4.664901793E-01 4.577338768E-05
 9.318564087E-03 1.049756393E-04 4.858546555E-01 4.683137013E-05
 9.839620441E-03 1.079632057E-04 5.058844090E-01 4.790797902E-05
 1.038423274E-02 1.109747609E-04 5.266020894E-01 4.900321437E-05
 1.095328107E-02 1.140086388E-04 5.480312705E-01 5.011707617E-05
 1.154767536E-02 1.170631513E-04 5.701962113E-01 5.125328971E-05
 1.216835622E-02 1.201365667E-04 5.931223035E-01 5.240812970E-05
 1.281629503E-02 1.232271461E-04 6.168358326E-01 5.358904673E-05
 1.349249575E-02 1.263330923E-04 6.413640976E-01 5.478859021E-05
 1.419799868E-02 1.294526010E-04 6.667352915E-01 5.601048542E-05
 1.493387576E-02 1.325838239E-04 6.929787993E-01 5.725473238E-05
 1.570123248E-02 1.357249566E-04 7.201250196E-01 5.852133108E-05
 1.650121436E-02 1.388740930E-04 7.482052445E-01 5.981400682E-05
 1.733499952E-02 1.420293993E-04 7.772520781E-01 6.112903066E-05
 1.820380241E-02 1.451889839E-04 8.072990775E-01 6.247013516E-05
 1.910900511E-02 1.483509550E-04 8.383864164E-01 6.383731670E-05
 2.005210333E-02 1.515134209E-04 8.705587983E-01 6.523057527E-05
 2.103465796E-02 1.546744752E-04 9.038626552E-01 6.664991088E-05
 2.205829881E-02 1.578322117E-04 9.383468628E-01 6.809532351E-05
 2.312472835E-02 1.609846659E-04 9.740620852E-01 6.956681318E-05
 2.423571423E-02 1.641299023E-04 1.011061311E+00 7.107183046E-05
 2.539310232E-02 1.672659128E-04 1.049399972E+00 7.259919948E-05
 2.659880370E-02 1.703907183E-04 1.089135647E+00 7.416009612E-05
 2.785482071E-02 1.735023106E-04 1.130327940E+00 7.575079508E-05
 2.916321717E-02 1.765986672E-04 1.173039436E+00 7.737502165E-05
 3.052614443E-02 1.796777360E-04 1.217334628E+00 7.902532525E-05
 3.194581345E-02 1.827374945E-04 1.263280869E+00 8.071288175E-05
 3.342453763E-02 1.857758762E-04 1.310947180E+00 8.243024058E-05
 3.496467695E-02 1.887908293E-04 1.360405803E+00 8.418112702E-05
 3.656868264E-02 1.917802729E-04 1.411730528E+00 8.596554107E-05
 3.823906183E-02 1.947421988E-04 1.464997768E+00 8.778720803E-05
 3.997839615E-02 1.976745261E-04 1.520285845E+00 8.964240260E-05
 4.178932309E-02 2.005752613E-04 1.577674985E+00 9.153485007E-05
 4.367453605E-02 2.034423669E-04 1.637247205E+00 9.346455045E-05
 4.563676938E-02 2.062738931E-04 1.699086189E+00 9.543522901E-05
 4.767880589E-02 2.090679045E-04 1.763276577E+00 9.743943519E-05
 4.980344325E-02 2.118224802E-04 1.829904199E+00 9.948834486E-05
 5.201350525E-02 2.145358012E-04 1.899055481E+00 1.015745074E-04
 5.431181565E-02 2.172060340E-04 1.970816851E+00 1.037016482E-04
 5.670118704E-02 2.198314905E-04 2.045274973E+00 1.058734924E-04
 5.918440223E-02 2.224105119E-04 2.122515678E+00 1.080863149E-04
 6.176420301E-02 2.249414829E-04 2.202623129E+00 1.103438408E-04
 6.444326788E-02 2.274229773E-04 2.285680532E+00 1.126460702E-04
 6.722421199E-02 2.298535546E-04 2.371768236E+00 1.149930031E-04
 7.010951638E-02 2.322319342E-04 2.460963964E+00 1.173883647E-04
 7.310155779E-02 2.345569228E-04 2.553342104E+00 1.198321552E-04
 7.620258629E-02 2.368274290E-04 2.648972988E+00 1.223243744E-04
 7.941466570E-02 2.390425070E-04 2.747921705E+00 1.248650224E-04
 8.273969591E-02 2.412012400E-04 2.850248575E+00 1.274578244E-04
 8.617936820E-02 2.433029440E-04 2.956008434E+00 1.300990552E-04
 8.973515034E-02 2.453469788E-04 3.065249681E+00 1.327961654E-04
 9.340829402E-02 2.473328204E-04 3.178013563E+00 1.355491549E-04
 9.719979018E-02 2.492601052E-04 3.294334888E+00 1.383542985E-04
 1.011103690E-01 2.511284838E-04 3.414240837E+00 1.412153215E-04
 1.051405147E-01 2.529378689E-04 3.537751198E+00 1.441359491E-04
 1.092904061E-01 2.546881733E-04 3.664877653E+00 1.471124560E-04
 1.135599762E-01 2.563793387E-04 3.795625210E+00 1.501522929E-04
 1.179488674E-01 2.580115979E-04 3.929989815E+00 1.532517344E-04
 1.224564463E-01 2.595850965E-04 4.067961216E+00 1.564107806E-04
 1.270818263E-01 2.611001546E-04 4.209521294E+00 1.596368820E-04
 1.318238527E-01 2.625570924E-04 4.354644775E+00 1.629263134E-04
 1.366811097E-01 2.639563463E-04 4.503299713E+00 1.662827999E-04
 1.416519880E-01 2.652983821E-04 4.655448914E+00 1.697063417E-04
 1.467345953E-01 2.665837237E-04 4.811048031E+00 1.732006640E-04
 1.519268602E-01 2.678129822E-04 4.970047951E+00 1.767620415E-04
 1.572265178E-01 2.689866815E-04 5.132395267E+00 1.803979249E-04
 1.626311541E-01 2.701054618E-04 5.298031807E+00 1.841083140E-04
 1.681381315E-01 2.711699926E-04 5.466895103E+00 1.878932089E-04
 1.737447083E-01 2.721809142E-04 5.638920307E+00 1.917526097E-04
 1.794480085E-01 2.731388668E-04 5.814038754E+00 1.956902415E-04
 1.852450222E-01 2.740445489E-04 5.992180824E+00 1.997061045E-04
 1.911326349E-01 2.748985717E-04 6.173272133E+00 2.038076491E-04
 1.971076727E-01 2.757016046E-04 6.357239723E+00 2.079874248E-04
 2.031668425E-01 2.764542587E-04 6.544007778E+00 2.122528822E-04
 2.093067914E-01 2.771572035E-04 6.733499050E+00 2.166077466E-04
 2.155241072E-01 2.778109920E-04 6.925635815E+00 2.210482926E-04
 2.218153179E-01 2.784162352E-04 7.120340824E+00 2.255782456E-04
 2.281768918E-01 2.789734572E-04 7.317534447E+00 2.302013309E-04
 2.346052974E-01 2.794831526E-04 7.517138004E+00 2.349175484E-04
 2.410968840E-01 2.799459035E-04 7.719072342E+00 2.397268981E-04
 2.476480007E-01 2.803621464E-04 7.923258781E+00 2.446368453E-04
 2.542549670E-01 2.807322599E-04 8.129617691E+00 2.496473608E-04
 2.609140575E-01 2.810567385E-04 8.338069916E+00 2.547584591E-04
 2.676214874E-01 2.813359024E-04 8.548534393E+00 2.599701402E-04
 2.743735015E-01 2.815701300E-04 8.760933876E+00 2.652898547E-04
 2.811661959E-01 2.817596542E-04 8.975187302E+00 2.707176027E-04
 2.879956663E-01 2.819048532E-04 9.191215515E+00 2.762533841E-04
 2.948580682E-01 2.820059017E-04 9.408937454E+00 2.819046495E-04
 3.017493486E-01 2.820630325E-04 9.628272057E+00 2.876713988E-04
 3.086654842E-01 2.820764785E-04 9.849140167E+00 2.935499069E-04
 3.156023920E-01 2.820462978E-04 1.007145882E+01 2.995513496E-04
 3.225559294E-01 2.819726942E-04 1.029514694E+01 3.056757268E-04
 3.295219243E-01 2.818556968E-04 1.052011967E+01 3.119230387E-04
 3.364960551E-01 2.816953638E-04 1.074629402E+01 3.182970104E-04
 3.434740305E-01 2.814917825E-04 1.097358513E+01 3.248013672E-04
 3.504514396E-01 2.812449238E-04 1.120190716E+01 3.314361093E-04
 3.574237525E-01 2.809547586E-04 1.143117237E+01 3.382086870E-04
 3.643864095E-01 2.806212287E-04 1.166129208E+01 3.451153752E-04
 3.713348210E-01 2.802442759E-04 1.189217567E+01 3.521636245E-04
 3.782642186E-01 2.798237838E-04 1.212373161E+01 3.593571601E-04
 3.851697743E-01 2.793596068E-04 1.235586643E+01 3.666922566E-04
 3.920466006E-01 2.788516285E-04 1.258848476E+01 3.741800901E-04
 3.988896310E-01 2.782996453E-04 1.282148933E+01 3.818206606E-04
 4.056937993E-01 2.777034824E-04 1.305478096E+01 3.896139679E-04
 4.124539495E-01 2.770629071E-04 1.328825665E+01 3.975674626E-04
 4.191646576E-01 2.763776865E-04 1.352181435E+01 4.056811449E-04
 4.258205891E-01 2.756475296E-04 1.375534534E+01 4.139624652E-04
 4.324162006E-01 2.748722036E-04 1.398874283E+01 4.224114236E-04
 4.389458895E-01 2.740514174E-04 1.422189522E+01 4.310317454E-04
 4.454038739E-01 2.731848508E-04 1.445468807E+01 4.398271558E-04
 4.517843425E-01 2.722721838E-04 1.468700504E+01 4.488013801E-04
 4.580813944E-01 2.713130671E-04 1.491872597E+01 4.579581437E-04
 4.642888904E-01 2.703071805E-04 1.514972973E+01 4.673011717E-04
 4.704007506E-01 2.692541166E-04 1.537989044E+01 4.768341896E-04
 4.764106274E-01 2.681535552E-04 1.560907936E+01 4.865609226E-04
 4.823122323E-01 2.670050890E-04 1.583716679E+01 4.964850959E-04
 4.880990982E-01 2.658083395E-04 1.606401825E+01 5.066141603E-04
 4.937646389E-01 2.645629575E-04 1.628949547E+01 5.169443903E-04
 4.993022382E-01 2.632684773E-04 1.651346016E+01 5.274906871E-04
 5.047051907E-01 2.619244915E-04 1.673576736E+01 5.382456002E-04
 5.099666119E-01 2.605307091E-04 1.695627403E+01 5.492240307E-04
 5.150797367E-01 2.590866352E-04 1.717482567E+01 5.604222533E-04
 5.200375319E-01 2.575919207E-04 1.739127731E+01 5.718514440E-04
 5.248330235E-01 2.560461871E-04 1.760546875E+01 5.835116026E-04
 5.294592381E-01 2.544490271E-04 1.781724358E+01 5.954101798E-04
 5.339090824E-01 2.528000914E-04 1.802644539E+01 6.075509009E-04
 5.381754637E-01 2.510990016E-04 1.823291016E+01 6.199412164E-04
 5.422512889E-01 2.493454667E-04 1.843647385E+01 6.325774011E-04
 5.461295843E-01 2.475391666E-04 1.863696671E+01 6.454743561E-04
 5.498031378E-01 2.456798102E-04 1.883422661E+01 6.586358068E-04
 5.532650352E-01 2.437670628E-04 1.902807999E+01 6.720617530E-04
 5.565083623E-01 2.418007498E-04 1.921835899E+01 6.857633707E-04
 5.595263839E-01 2.397806675E-04 1.940489197E+01 6.997443852E-04
 5.623122454E-01 2.377066121E-04 1.958750916E+01 7.140085218E-04
 5.648595095E-01 2.355785109E-04 1.976603889E+01 7.285632310E-04
 5.671616197E-01 2.333962475E-04 1.994031334E+01 7.434159634E-04
 5.692126155E-01 2.311598219E-04 2.011016464E+01 7.585667190E-04
 5.710065365E-01 2.288692631E-04 2.027542496E+01 7.740303990E-04
 5.725376606E-01 2.265246731E-04 2.043593597E+01 7.898070035E-04
 5.738007426E-01 2.241262118E-04 2.059153938E+01 8.059077081E-04
 5.747908354E-01 2.216741268E-04 2.074208641E+01 8.223325131E-04
 5.755034685E-01 2.191687818E-04 2.088742828E+01 8.390925941E-04
 5.759346485E-01 2.166105842E-04 2.102743340E+01 8.561954019E-04
 5.760808587E-01 2.140000579E-04 2.116197205E+01 8.736446616E-04
 5.759392977E-01 2.113378432E-04 2.129093170E+01 8.914515493E-04
 5.755076408E-01 2.086246823E-04 2.141420937E+01 9.096197900E-04
 5.747845173E-01 2.058614482E-04 2.153172302E+01 9.281568346E-04
 5.737693310E-01 2.030491742E-04 2.164340591E+01 9.470738587E-04
 5.724622607E-01 2.001890389E-04 2.174921227E+01 9.663745877E-04
 5.708646178E-01 1.972823229E-04 2.184912491E+01 9.860664140E-04
 5.689787865E-01 1.943305833E-04 2.194314766E+01 1.006164355E-03
 5.668084025E-01 1.913354499E-04 2.203132439E+01 1.026668353E-03
 5.643581748E-01 1.882988436E-04 2.211373138E+01 1.047589583E-03
 5.616345406E-01 1.852228161E-04 2.219048309E+01 1.068939222E-03
 5.586453080E-01 1.821096957E-04 2.226174736E+01 1.090720994E-03
 5.554000735E-01 1.789620437E-04 2.232774162E+01 1.112946076E-03
 5.519101024E-01 1.757826249E-04 2.238874054E+01 1.135625644E-03
 5.481886864E-01 1.725745096E-04 2.244508743E+01 1.158767147E-03
 5.442513824E-01 1.693410450E-04 2.249719810E+01 1.182381762E-03
 5.401157141E-01 1.660858688E-04 2.254557419E+01 1.206473215E-03
 5.358018875E-01 1.628128812E-04 2.259080887E+01 1.231060131E-03
 5.313326716E-01 1.595263311E-04 2.263359451E+01 1.256146235E-03
 5.267332792E-01 1.562307589E-04 2.267473793E+01 1.281738980E-03
 5.220321417E-01 1.529310539E-04 2.271516991E+01 1.307856990E-03
 5.172604322E-01 1.496324112E-04 2.275595665E+01 1.334507717E-03
 5.124527216E-01 1.463403460E-04 2.279831505E+01 1.361698611E-03
 5.076466203E-01 1.430606935E-04 2.284361649E+01 1.389444573E-03
 5.028830767E-01 1.397995657E-04 2.289340401E+01 1.417756779E-03
 4.982064664E-01 1.365633652E-04 2.294939995E+01 1.446646405E-03
 4.936643541E-01 1.333587570E-04 2.301352310E+01 1.476120902E-03
 4.893075526E-01 1.301925513E-04 2.308787537E+01 1.506198896E-03
 4.851898849E-01 1.270717912E-04 2.317476845E+01 1.536887838E-03
 4.813679755E-01 1.240035053E-04 2.327670097E+01 1.568202628E-03
 4.779007733E-01 1.209948387E-04 2.339636421E+01 1.600158168E-03
 4.748490453E-01 1.180528052E-04 2.353661919E+01 1.632761909E-03
 4.722747207E-01 1.151842371E-04 2.370047760E+01 1.666028751E-03
 4.702400565E-01 1.123957118E-04 2.389105988E+01 1.699973596E-03
 4.688065946E-01 1.096934138E-04 2.411156273E+01 1.734611345E-03
 4.680341482E-01 1.070829894E-04 2.436518478E+01 1.769953175E-03
 4.679793715E-01 1.045694662E-04 2.465507698E+01 1.806017710E-03
 4.686944485E-01 1.021571297E-04 2.498425293E+01 1.842812402E-03
 4.702255726E-01 9.984944336E-05 2.535549927E+01 1.880359603E-03
 4.726116061E-01 9.764891729E-05 2.577129364E+01 1.918670489E-03
 4.758826494E-01 9.555710130E-05 2.623370552E+01 1.957763685E-03
 4.800586998E-01 9.357454837E-05 2.674431038E+01 1.997654093E-03
 4.851488173E-01 9.170080011E-05 2.730410957E+01 2.038352890E-03
 4.911503792E-01 8.993443771E-05 2.791346741E+01 2.079882426E-03
 4.980486333E-01 8.827311831E-05 2.857206726E+01 2.122261329E-03
 5.058169365E-01 8.671369142E-05 2.927889824E+01 2.165500773E-03
 5.144168735E-01 8.525227895E-05 3.003224754E+01 2.209619386E-03
 5.237995386E-01 8.388443530E-05 3.082974052E+01 2.254639519E-03
 5.339060426E-01 8.260520553E-05 3.166839409E+01 2.300576074E-03
 5.446695685E-01 8.140931459E-05 3.254468536E+01 2.347447677E-03
 5.560163856E-01 8.029127639E-05 3.345463562E+01 2.395272953E-03
 5.678678155E-01 7.924544479E-05 3.439391708E+01 2.444074256E-03
 5.801413655E-01 7.826618821E-05 3.535793686E+01 2.493870212E-03
 5.927528739E-01 7.734791143E-05 3.634193802E+01 2.544683171E-03
 6.056175232E-01 7.648512837E-05 3.734110260E+01 2.596528037E-03
 6.186510324E-01 7.567255670E-05 3.835060120E+01 2.649427159E-03
 6.317707896E-01 7.490508870E-05 3.936570740E+01 2.703406615E-03
 6.448966265E-01 7.417783490E-05 4.038180161E+01 2.758485032E-03
 6.579514146E-01 7.348615327E-05 4.139446640E+01 2.814684762E-03
 6.708615422E-01 7.282564184E-05 4.239948654E+01 2.872031881E-03
 6.835572124E-01 7.219211693E-05 4.339287949E+01 2.930545015E-03
 6.959724426E-01 7.158163498E-05 4.437090683E+01 2.990250243E-03
 7.080451846E-01 7.099047798E-05 4.533009720E+01 3.051173640E-03
 7.197173834E-01 7.041511708E-05 4.626723099E+01 3.113337560E-03
 7.309347987E-01 6.985221989E-05 4.717932892E+01 3.176768078E-03
 7.416468859E-01 6.929862138E-05 4.806366730E+01 3.241487546E-03
 7.518066168E-01 6.875133113E-05 4.891775513E+01 3.307529492E-03
 7.613708377E-01 6.820748968E-05 4.973935318E+01 3.374916269E-03
 7.703247070E-01 6.766438310E-05 5.052806854E+01 3.443673952E-03
 7.786766887E-01 6.711942842E-05 5.128507614E+01 3.513832344E-03
 7.864317298E-01 6.657016638E-05 5.201136017E+01 3.585421247E-03
 7.935904264E-01 6.601426867E-05 5.270766068E+01 3.658470465E-03
 8.001425266E-01 6.544945791E-05 5.337400818E+01 3.733006073E-03
 8.060697317E-01 6.487352221E-05 5.400994110E+01 3.809057875E-03
 8.113509417E-01 6.428432243E-05 5.461483002E+01 3.886663122E-03
 8.159627318E-01 6.367974129E-05 5.518786621E+01 3.965848126E-03
 8.198788166E-01 6.305773422E-05 5.572809219E+01 4.046645947E-03
 8.230705857E-01 6.241625670E-05 5.623437500E+01 4.129090346E-03
 8.255074620E-01 6.175329327E-05 5.670542526E+01 4.213211127E-03
 8.271565437E-01 6.106687215E-05 5.713980865E+01 4.299049266E-03
 8.279830813E-01 6.035501792E-05 5.753592682E+01 4.386634566E-03
 8.279506564E-01 5.961578790E-05 5.789202118E+01 4.476004280E-03
 8.270207644E-01 5.884723942E-05 5.820617676E+01 4.567195661E-03
 8.251538277E-01 5.804745888E-05 5.847631073E+01 4.660245962E-03
 8.223085403E-01 5.721455091E-05 5.870018005E+01 4.755188711E-03
 8.184425831E-01 5.634662739E-05 5.887535858E+01 4.852068610E-03
 8.135125637E-01 5.544182932E-05 5.899924088E+01 4.950919189E-03
 8.074741364E-01 5.449831951E-05 5.906903076E+01 5.051785149E-03
 8.002824783E-01 5.351430082E-05 5.908173370E+01 5.154707469E-03
 7.918922305E-01 5.248800153E-05 5.903414536E+01 5.259723403E-03
 7.822580934E-01 5.141770089E-05 5.892281342E+01 5.366881378E-03
 7.713346481E-01 5.030173270E-05 5.874406052E+01 5.476222374E-03
 7.590773106E-01 4.913848898E-05 5.849392700E+01 5.587791093E-03
 7.454419732E-01 4.792645268E-05 5.816814423E+01 5.701632239E-03
 7.303860784E-01 4.666419045E-05 5.776212311E+01 5.817790516E-03
 7.138682008E-01 4.535037442E-05 5.727089310E+01 5.936318077E-03
 6.958491802E-01 4.398381498E-05 5.668904877E+01 6.057259627E-03
 6.762924194E-01 4.256344619E-05 5.601069260E+01 6.180663593E-03
 6.551638246E-01 4.108838402E-05 5.522933197E+01 6.306582130E-03
 6.324328184E-01 3.955791908E-05 5.433778381E+01 6.435067393E-03
 6.080726385E-01 3.797154568E-05 5.332803726E+01 6.566171534E-03
 5.821000338E-01 3.632903099E-05 5.219456100E+01 6.699942984E-03
 5.545471907E-01 3.463052053E-05 5.093180847E+01 6.836441346E-03
 5.254616737E-01 3.287658183E-05 4.953400421E+01 6.975722499E-03
 4.949089289E-01 3.106830263E-05 4.799523544E+01 7.117838599E-03
 4.629756212E-01 2.920737461E-05 4.630943298E+01 7.262852974E-03
 4.297730923E-01 2.729621337E-05 4.447045517E+01 7.410817780E-03
 3.954415023E-01 2.533808401E-05 4.247221375E+01 7.561800070E-03
 3.601553142E-01 2.333726479E-05 4.030883026E+01 7.715855725E-03
 3.241295516E-01 2.129924724E-05 3.797495651E+01 7.873051800E-03
 2.876283526E-01 1.923097989E-05 3.546636581E+01 8.033451624E-03
 2.509764135E-01 1.714119389E-05 3.278098297E+01 8.197114803E-03
 2.145761102E-01 1.504087959E-05 2.992102623E+01 8.364115842E-03
 1.789349318E-01 1.294406047E-05 2.689744568E+01 8.534518071E-03
 1.447147876E-01 1.086930661E-05 2.373985863E+01 8.708392270E-03
 1.128199175E-01 8.843188880E-06 2.051896477E+01 8.885809220E-03
 8.451744169E-02 6.908345313E-06 1.739142799E+01 9.066839702E-03
 5.924921483E-02 5.112095096E-06 1.417157555E+01 9.251561947E-03
 3.736204281E-02 3.498196747E-06 1.080140209E+01 9.440043010E-03
 2.136507630E-02 2.142676294E-06 7.890594006E+00 9.632364847E-03
 1.085740235E-02 1.132508373E-06 5.513943195E+00 9.828605689E-03
 4.699352197E-03 4.933310720E-07 3.613947392E+00 1.002884377E-02
 1.594909234E-03 1.659940239E-07 2.111479998E+00 1.023316104E-02
 3.730398603E-04 3.884680666E-08 1.017260551E+00 1.044164319E-02
 6.155680603E-05 6.456712498E-09 4.093213975E-01 1.065436844E-02
 7.996369277E-06 8.571399146E-10 1.447434723E-01 1.087143365E-02
 9.041240787E-07 1.101562452E-10 4.508050531E-02 1.109291706E-02
 1.016599285E-07 2.509052861E-11 1.064193435E-02 1.131891180E-02
 1.946175132E-08 1.648105090E-11 2.585002920E-03 1.154951099E-02
 1.162144248E-08 1.570344375E-11 1.586944796E-03 1.178481150E-02
 1.091345236E-08 1.563459605E-11 1.493721153E-03 1.202490274E-02
 1.084983037E-08 1.562334984E-11 1.485601184E-03 1.226988528E-02
 1.084132428E-08 1.561644564E-11 1.484813518E-03 1.251986343E-02
 1.083724754E-08 1.560985889E-11 1.484617474E-03 1.277492661E-02
 1.083345413E-08 1.560329817E-11 1.484459848E-03 1.303519029E-02
 1.082961720E-08 1.559673918E-11 1.484296983E-03 1.330075879E-02
 1.082571099E-08 1.559017325E-11 1.484125736E-03 1.357173640E-02
 1.082173018E-08 1.558358997E-11 1.483945642E-03 1.384823490E-02
 1.081767120E-08 1.557698762E-11 1.483756583E-03 1.413035858E-02
 1.081353052E-08 1.557035577E-11 1.483558561E-03 1.441824157E-02
 1.080930545E-08 1.556369096E-11 1.483351458E-03 1.471198071E-02
 1.080499334E-08 1.555698279E-11 1.483135158E-03 1.501171011E-02
 1.080059153E-08 1.555022951E-11 1.482909312E-03 1.531754155E-02
 1.079609557E-08 1.554342245E-11 1.482674154E-03 1.562960818E-02
 1.079150369E-08 1.553655815E-11 1.482429216E-03 1.594803110E-02
 1.078681144E-08 1.552962446E-11 1.482174615E-03 1.627293602E-02
 1.078201528E-08 1.552261965E-11 1.481909887E-03 1.660446450E-02
 1.077711342E-08 1.551554024E-11 1.481635147E-03 1.694275066E-02
 1.077210143E-08 1.550837410E-11 1.481350046E-03 1.728792116E-02
 1.076697664E-08 1.550111775E-11 1.481054467E-03 1.764013246E-02
 1.076173639E-08 1.549376946E-11 1.480748295E-03 1.799951121E-02
 1.075637623E-08 1.548632056E-11 1.480431412E-03 1.836621389E-02
 1.075089351E-08 1.547876410E-11 1.480103470E-03 1.874038950E-02
 1.074528644E-08 1.547109836E-11 1.479764353E-03 1.912218705E-02
 1.073954881E-08 1.546331466E-11 1.479413826E-03 1.951176301E-02
 1.073368061E-08 1.545540779E-11 1.479051774E-03 1.990927383E-02
 1.072767564E-08 1.544737255E-11 1.478678081E-03 2.031489089E-02
 1.072153211E-08 1.543920373E-11 1.478292164E-03 2.072876319E-02
 1.071524558E-08 1.543089788E-11 1.477894257E-03 2.115106955E-02
 1.070881428E-08 1.542244804E-11 1.477483776E-03 2.158198133E-02
 1.070223288E-08 1.541384902E-11 1.477060723E-03 2.202166989E-02
 1.069549960E-08 1.540509387E-11 1.476624748E-03 2.247032151E-02
 1.068860822E-08 1.539617739E-11 1.476175617E-03 2.292810753E-02
 1.068155697E-08 1.538709438E-11 1.475712867E-03 2.339522168E-02
 1.067434230E-08 1.537784136E-11 1.475236611E-03 2.387185022E-02
 1.066695798E-08 1.536840967E-11 1.474746387E-03 2.435819432E-02
 1.065940314E-08 1.535879583E-11 1.474241726E-03 2.485444024E-02
 1.065167243E-08 1.534899118E-11 1.473722747E-03 2.536079660E-02
 1.064376054E-08 1.533899396E-11 1.473188633E-03 2.587747201E-02
 1.063566568E-08 1.532879206E-11 1.472639618E-03 2.640467510E-02
 1.062738253E-08 1.531838892E-11 1.472075004E-03 2.694261447E-02
 1.061890753E-08 1.530777068E-11 1.471494674E-03 2.749152109E-02
 1.061023447E-08 1.529693386E-11 1.470898162E-03 2.805160359E-02
 1.060136068E-08 1.528587673E-11 1.470285235E-03 2.862310037E-02
 1.059228261E-08 1.527458542E-11 1.469655428E-03 2.920623496E-02
 1.058299404E-08 1.526305818E-11 1.469008392E-03 2.980125323E-02
 1.057349053E-08 1.525128808E-11 1.468343893E-03 3.040839359E-02
 1.056376764E-08 1.523927165E-11 1.467661466E-03 3.102790192E-02
 1.055382004E-08 1.522699501E-11 1.466960646E-03 3.166003153E-02
 1.054364240E-08 1.521445817E-11 1.466240967E-03 3.230504319E-02
 1.053323029E-08 1.520164897E-11 1.465502079E-03 3.296319768E-02
 1.052257836E-08 1.518856568E-11 1.464743633E-03 3.363475576E-02
 1.051168130E-08 1.517519617E-11 1.463965047E-03 3.431999311E-02
 1.050053289E-08 1.516153696E-11 1.463165856E-03 3.501919284E-02
 1.048912690E-08 1.514757937E-11 1.462345826E-03 3.573263809E-02
 1.047745979E-08 1.513331474E-11 1.461504144E-03 3.646061942E-02
 1.046552267E-08 1.511873786E-11 1.460640342E-03 3.720342740E-02
 1.045331288E-08 1.510383832E-11 1.459753956E-03 3.796137497E-02
 1.044082154E-08 1.508860745E-11 1.458844636E-03 3.873476014E-02
 1.042804332E-08 1.507304004E-11 1.457911567E-03 3.952390328E-02
 1.041497111E-08 1.505712742E-11 1.456954284E-03 4.032912478E-02
 1.040159869E-08 1.504085745E-11 1.455972204E-03 4.115074500E-02
 1.038791897E-08 1.502422492E-11 1.454964629E-03 4.198911414E-02
 1.037392483E-08 1.500721596E-11 1.453931094E-03 4.284455255E-02
 1.035960917E-08 1.498982882E-11 1.452870783E-03 4.371742532E-02
 1.034496400E-08 1.497204617E-11 1.451783115E-03 4.460808262E-02
 1.032998220E-08 1.495386454E-11 1.450667391E-03 4.551688209E-02
 1.031465580E-08 1.493526830E-11 1.449522912E-03 4.644419625E-02
 1.029897589E-08 1.491625226E-11 1.448348979E-03 4.739039764E-02
 1.028293539E-08 1.489680081E-11 1.447144779E-03 4.835588112E-02
 1.026652630E-08 1.487690873E-11 1.445909613E-03 4.934104159E-02
 1.024973972E-08 1.485656043E-11 1.444642665E-03 5.034625903E-02
 1.023256591E-08 1.483574721E-11 1.443343237E-03 5.137196556E-02
 1.021499507E-08 1.481445522E-11 1.442010165E-03 5.241856351E-02
 1.019702012E-08 1.479267576E-11 1.440642984E-03 5.348648503E-02
 1.017862861E-08 1.477039151E-11 1.439240412E-03 5.457616970E-02
 1.015981077E-08 1.474759204E-11 1.437801635E-03 5.568804219E-02
 1.014055862E-08 1.472426694E-11 1.436325954E-03 5.682257935E-02
 1.012085882E-08 1.470039715E-11 1.434811973E-03 5.798022076E-02
 1.010070161E-08 1.467597224E-11 1.433258760E-03 5.916145071E-02
 1.008007544E-08 1.465097835E-11 1.431665500E-03 6.036674604E-02
 1.005896966E-08 1.462539985E-11 1.430030796E-03 6.159659848E-02
 1.003737093E-08 1.459921767E-11 1.428353717E-03 6.285150349E-02
 1.001526773E-08 1.457242313E-11 1.426633098E-03 6.413198262E-02
 9.992646710E-09 1.454499281E-11 1.424867543E-03 6.543853879E-02
 9.969492787E-09 1.451691371E-11 1.423056005E-03 6.677171588E-02
 9.945795298E-09 1.448816761E-11 1.421196852E-03 6.813205779E-02
 9.921538258E-09 1.445873456E-11 1.419289038E-03 6.952010840E-02
 9.896707454E-09 1.442859634E-11 1.417330815E-03 7.093644142E-02
 9.871286011E-09 1.439773301E-11 1.415320905E-03 7.238162309E-02
 9.845259719E-09 1.436612634E-11 1.413257793E-03 7.385625690E-02
 9.818611701E-09 1.433375120E-11 1.411139849E-03 7.536092401E-02
 9.791322420E-09 1.430058849E-11 1.408965327E-03 7.689625025E-02
 9.763377662E-09 1.426661393E-11 1.406732365E-03 7.846285403E-02
 9.734757001E-09 1.423180410E-11 1.404439565E-03 8.006137609E-02
 9.705442672E-09 1.419613472E-11 1.402084716E-03 8.169247210E-02
 9.675415136E-09 1.415958323E-11 1.399666304E-03 8.335678279E-02
 9.644654853E-09 1.412212101E-11 1.397182117E-03 8.505500853E-02
 9.613142282E-09 1.408372464E-11 1.394630177E-03 8.678783476E-02
 9.580854332E-09 1.404436463E-11 1.392008271E-03 8.855596185E-02
 9.547768798E-09 1.400401062E-11 1.389314304E-03 9.036011994E-02
 9.513861698E-09 1.396263140E-11 1.386545599E-03 9.220102429E-02
 9.479106389E-09 1.392019139E-11 1.383699710E-03 9.407941997E-02
 9.443475335E-09 1.387665764E-11 1.380773727E-03 9.599609673E-02
 9.406938339E-09 1.383198937E-11 1.377764973E-03 9.795182943E-02
 9.369466092E-09 1.378614757E-11 1.374670188E-03 9.994740784E-02
 9.331023954E-09 1.373908973E-11 1.371485996E-03 1.019836217E-01
 9.291579950E-09 1.369077161E-11 1.368209138E-03 1.040613353E-01
 9.251095889E-09 1.364114464E-11 1.364835887E-03 1.061813831E-01
 9.209535357E-09 1.359016025E-11 1.361362403E-03 1.083445996E-01
 9.166858383E-09 1.353776466E-11 1.357784495E-03 1.105519086E-01
 9.123018785E-09 1.348390063E-11 1.354097854E-03 1.128041744E-01
 9.077969487E-09 1.342850484E-11 1.350297593E-03 1.151023358E-01
 9.031660753E-09 1.337151050E-11 1.346378354E-03 1.174473166E-01
 8.984033961E-09 1.331284215E-11 1.342334435E-03 1.198400706E-01
 8.935027829E-09 1.325241999E-11 1.338159665E-03 1.222815663E-01
 8.884576630E-09 1.319015643E-11 1.333846943E-03 1.247728020E-01
 8.832604870E-09 1.312595345E-11 1.329389284E-03 1.273147911E-01