# mean flow u results for k-kL-MEAH2015 model at x=0.75 
VARIABLES = "u" "y-0.05"
ZONE T="CFL3D"
 0.000000000E+00 0.000000000E+00
 3.789195092E-03 4.962086564E-07
 7.579445839E-03 9.916723229E-07
 1.137183979E-02 1.487135933E-06
 1.516742725E-02 1.982599542E-06
 1.896726154E-02 2.478063152E-06
 2.277238481E-02 2.977252052E-06
 2.658384293E-02 3.476440952E-06
 3.040267341E-02 3.975629625E-06
 3.422991186E-02 4.478543815E-06
 3.806657717E-02 4.981458005E-06
 4.191369563E-02 5.488097486E-06
 4.577227309E-02 5.998462257E-06
 4.964332283E-02 6.508827028E-06
 5.352782458E-02 7.022917089E-06
 5.742676184E-02 7.537007150E-06
 6.134111434E-02 8.058547792E-06
 6.527183205E-02 8.580088434E-06
 6.921985745E-02 9.105354366E-06
 7.318612188E-02 9.638070878E-06
 7.717154920E-02 1.017078739E-05
 8.117704093E-02 1.070722919E-05
 8.520345390E-02 1.125112158E-05
 8.925168216E-02 1.179873925E-05
 9.332254529E-02 1.235008222E-05
 9.741689265E-02 1.290515047E-05
 1.015355140E-01 1.346766931E-05
 1.056791991E-01 1.403391343E-05
 1.098487079E-01 1.460760814E-05
 1.140447780E-01 1.518502813E-05
 1.182681024E-01 1.576989962E-05
 1.225193962E-01 1.636222078E-05
 1.267993003E-01 1.696199251E-05
 1.311084479E-01 1.756548954E-05
 1.354474425E-01 1.818016244E-05
 1.398168653E-01 1.879856063E-05
 1.442172527E-01 1.942440940E-05
 1.486490965E-01 2.006143404E-05
 1.531129181E-01 2.070590926E-05
 1.576091200E-01 2.135783507E-05
 1.621381193E-01 2.201721145E-05
 1.667003185E-01 2.268776370E-05
 1.712960303E-01 2.336576654E-05
 1.759256124E-01 2.405494524E-05
 1.805892438E-01 2.475157453E-05
 1.852871776E-01 2.545937969E-05
 1.900196224E-01 2.617836071E-05
 1.947867274E-01 2.690851761E-05
 1.995886117E-01 2.764612509E-05
 2.044252902E-01 2.839863373E-05
 2.092968076E-01 2.916231824E-05
 2.142031640E-01 2.993717862E-05
 2.191442847E-01 3.072321488E-05
 2.241200805E-01 3.152042700E-05
 2.291303724E-01 3.233254029E-05
 2.341749966E-01 3.315955473E-05
 2.392536700E-01 3.399774505E-05
 2.443661690E-01 3.485083653E-05
 2.495121211E-01 3.571882917E-05
 2.546911836E-01 3.659799768E-05
 2.599029243E-01 3.749579264E-05
 2.651468813E-01 3.840848876E-05
 2.704225779E-01 3.933236076E-05
 2.757293582E-01 4.027858449E-05
 2.810667753E-01 4.123598410E-05
 2.864340544E-01 4.221201016E-05
 2.918305993E-01 4.320666267E-05
 2.972556055E-01 4.421621634E-05
 3.027083576E-01 4.524812175E-05
 3.081879914E-01 4.629492832E-05
 3.136936426E-01 4.736036135E-05
 3.192244768E-01 4.844442083E-05
 3.247794807E-01 4.955083205E-05
 3.303577304E-01 5.067586972E-05
 3.359580636E-01 5.182325913E-05
 3.415795863E-01 5.298927499E-05
 3.472211659E-01 5.417764260E-05
 3.528815508E-01 5.538836194E-05
 3.585596383E-01 5.662143303E-05
 3.642543554E-01 5.787685586E-05
 3.699642122E-01 5.915835573E-05
 3.756881952E-01 6.046220733E-05
 3.814248443E-01 6.178840704E-05
 3.871729374E-01 6.314441271E-05
 3.929310739E-01 6.452277012E-05
 3.986978233E-01 6.592720456E-05
 4.044718742E-01 6.736144132E-05
 4.102515578E-01 6.882175512E-05
 4.160354733E-01 7.030814595E-05
 4.218220115E-01 7.182433910E-05
 4.276095629E-01 7.337033458E-05
 4.333964586E-01 7.494613237E-05
 4.391811490E-01 7.655173249E-05
 4.449617863E-01 7.818713493E-05
 4.507368207E-01 7.985606499E-05
 4.565043449E-01 8.155852265E-05
 4.622626901E-01 8.329078264E-05
 4.680101275E-01 8.506029553E-05
 4.737448692E-01 8.686333604E-05
 4.794651270E-01 8.869990415E-05
 4.851691425E-01 9.057745046E-05
 4.908551574E-01 9.248852439E-05
 4.965215325E-01 9.443685121E-05
 5.021664500E-01 9.642243094E-05
 5.077883005E-01 9.844898887E-05
 5.133854151E-01 1.005165250E-04
 5.189562440E-01 1.026250393E-04
 5.244991779E-01 1.047708065E-04
 5.300127864E-01 1.069650025E-04
 5.354956985E-01 1.092001767E-04
 5.409464836E-01 1.114800543E-04
 5.463638902E-01 1.138046355E-04
 5.517467856E-01 1.161739201E-04
 5.570940375E-01 1.185953588E-04
 5.624046922E-01 1.210615010E-04
 5.676777959E-01 1.235760719E-04
 5.729125738E-01 1.261427969E-04
 5.781084299E-01 1.287616760E-04
 5.832647085E-01 1.314289839E-04
 5.883809328E-01 1.341558964E-04
 5.934567451E-01 1.369312376E-04
 5.984920859E-01 1.397661836E-04
 6.034865975E-01 1.426570088E-04
 6.084404588E-01 1.456037135E-04
 6.133536100E-01 1.486137480E-04
 6.182263494E-01 1.516796619E-04
 6.230589747E-01 1.548126311E-04
 6.278517842E-01 1.580052049E-04
 6.326054335E-01 1.612611086E-04
 6.373202801E-01 1.645840675E-04
 6.419971585E-01 1.679740817E-04
 6.466367245E-01 1.714311511E-04
 6.512396336E-01 1.749590010E-04
 6.558067799E-01 1.785576314E-04
 6.603392959E-01 1.822307677E-04
 6.648379564E-01 1.859746844E-04
 6.693035960E-01 1.897968323E-04
 6.737374067E-01 1.936972112E-04
 6.781402826E-01 1.976720960E-04
 6.825135946E-01 2.017326624E-04
 6.868579388E-01 2.058714599E-04
 6.911747456E-01 2.100959391E-04
 6.954649687E-01 2.144023747E-04
 6.997298598E-01 2.188019425E-04
 7.039704323E-01 2.232871921E-04
 7.081877589E-01 2.278618485E-04
 7.123828530E-01 2.325296373E-04
 7.165569663E-01 2.372942836E-04
 7.207110524E-01 2.421557874E-04
 7.248462439E-01 2.471141634E-04
 7.289635539E-01 2.521731076E-04
 7.330640554E-01 2.573326346E-04
 7.371485829E-01 2.626001951E-04
 7.412183285E-01 2.679720637E-04
 7.452743053E-01 2.734556911E-04
 7.493172884E-01 2.790473518E-04
 7.533481717E-01 2.847544965E-04
 7.573680878E-01 2.905771253E-04
 7.613777518E-01 2.965189633E-04
 7.653781176E-01 3.025800106E-04
 7.693699598E-01 3.087639925E-04
 7.733542919E-01 3.150746343E-04
 7.773316503E-01 3.215119359E-04
 7.813031077E-01 3.280796227E-04
 7.852693796E-01 3.347814200E-04
 7.892309427E-01 3.416210529E-04
 7.931888103E-01 3.485985217E-04
 7.971435189E-01 3.557175514E-04
 8.010959625E-01 3.629818675E-04
 8.050464988E-01 3.703951952E-04
 8.089962006E-01 3.779575345E-04
 8.129452467E-01 3.856726107E-04
 8.168944716E-01 3.935478744E-04
 8.208444715E-01 4.015796003E-04
 8.247958422E-01 4.097752389E-04
 8.287490606E-01 4.181385157E-04
 8.327046633E-01 4.266731557E-04
 8.366632462E-01 4.353791592E-04
 8.406252265E-01 4.442639765E-04
 8.445912004E-01 4.533276078E-04
 8.485614657E-01 4.625775036E-04
 8.525366187E-01 4.720136640E-04
 8.565170169E-01 4.816435394E-04
 8.605030179E-01 4.914671299E-04
 8.644950390E-01 5.014918861E-04
 8.684935570E-01 5.117215333E-04
 8.724988699E-01 5.221597967E-04
 8.765112758E-01 5.328104016E-04
 8.805310726E-01 5.436733481E-04
 8.845585585E-01 5.547635374E-04
 8.885940313E-01 5.660772440E-04
 8.926376700E-01 5.776181933E-04
 8.966898918E-01 5.893975613E-04
 9.007506967E-01 6.014153478E-04
 9.048204422E-01 6.136790034E-04
 9.088990688E-01 6.261922535E-04
 9.129868746E-01 6.389588234E-04
 9.170839190E-01 6.519861636E-04
 9.211903214E-01 6.652779994E-04
 9.253060818E-01 6.788380560E-04
 9.294312000E-01 6.926775095E-04
 9.335657954E-01 7.068000850E-04
 9.377096891E-01 7.212057826E-04
 9.418628216E-01 7.359095034E-04
 9.460251927E-01 7.509112475E-04
 9.501966238E-01 7.662147400E-04
 9.543768167E-01 7.818348822E-04
 9.585655928E-01 7.977716741E-04
 9.627627730E-01 8.140288410E-04
 9.669679403E-01 8.306212840E-04
 9.711807370E-01 8.475527284E-04
 9.754008055E-01 8.648268995E-04
 9.796276689E-01 8.824512479E-04
 9.838606119E-01 9.004369495E-04
 9.880993366E-01 9.187877295E-04
 9.923429489E-01 9.375147638E-04
 9.965909123E-01 9.566217777E-04
 1.000842333E+00 9.761162219E-04
 1.005096078E+00 9.960092138E-04
 1.009351730E+00 1.016304595E-03
 1.013607740E+00 1.037017209E-03
 1.017863154E+00 1.058150781E-03
 1.022116661E+00 1.079712762E-03
 1.026367188E+00 1.101718051E-03
 1.030612946E+00 1.124166651E-03
 1.034852386E+00 1.147073461E-03
 1.039083958E+00 1.170449657E-03
 1.043305874E+00 1.194298966E-03
 1.047515869E+00 1.218636287E-03
 1.051712036E+00 1.243469073E-03
 1.055891991E+00 1.268808497E-03
 1.060053587E+00 1.294662012E-03
 1.064193726E+00 1.321040792E-03
 1.068310142E+00 1.347959740E-03
 1.072399735E+00 1.375426305E-03
 1.076459408E+00 1.403451664E-03
 1.080485821E+00 1.432050718E-03
 1.084475636E+00 1.461227192E-03
 1.088425398E+00 1.491003437E-03
 1.092331409E+00 1.521383179E-03
 1.096189857E+00 1.552381320E-03
 1.099996805E+00 1.584012760E-03
 1.103748560E+00 1.616288675E-03
 1.107440948E+00 1.649220241E-03
 1.111070275E+00 1.682822360E-03
 1.114632845E+00 1.717109932E-03
 1.118124843E+00 1.752097858E-03
 1.121543050E+00 1.787797315E-03
 1.124884725E+00 1.824223204E-03
 1.128146768E+00 1.861390425E-03
 1.131327391E+00 1.899313880E-03
 1.134424686E+00 1.938012196E-03
 1.137437582E+00 1.977500273E-03
 1.140365720E+00 2.017789287E-03
 1.143209219E+00 2.058901591E-03
 1.145968556E+00 2.100852085E-03
 1.148645401E+00 2.143655671E-03
 1.151241302E+00 2.187330974E-03
 1.153759003E+00 2.231892897E-03
 1.156201243E+00 2.277367515E-03
 1.158571124E+00 2.323766006E-03
 1.160872221E+00 2.371110721E-03
 1.163108349E+00 2.419420285E-03
 1.165283203E+00 2.468713326E-03
 1.167400956E+00 2.519012196E-03
 1.169465423E+00 2.570335520E-03
 1.171480656E+00 2.622701926E-03
 1.173450470E+00 2.676137490E-03
 1.175378680E+00 2.730660839E-03
 1.177268982E+00 2.786294324E-03
 1.179124713E+00 2.843060298E-03
 1.180949092E+00 2.900984837E-03
 1.182745576E+00 2.960086567E-03
 1.184516907E+00 3.020395292E-03
 1.186265945E+00 3.081933362E-03
 1.187995195E+00 3.144723130E-03
 1.189707398E+00 3.208790673E-03
 1.191404581E+00 3.274165792E-03
 1.193089008E+00 3.340874566E-03
 1.194762707E+00 3.408939345E-03
 1.196427226E+00 3.478389932E-03
 1.198084235E+00 3.549256129E-03
 1.199735284E+00 3.621567739E-03
 1.201381445E+00 3.695350839E-03
 1.203023672E+00 3.770638956E-03
 1.204663277E+00 3.847458167E-03
 1.206300855E+00 3.925845958E-03
 1.207937241E+00 4.005827941E-03
 1.209573269E+00 4.087441601E-03
 1.211209297E+00 4.170713015E-03
 1.212846041E+00 4.255686887E-03
 1.214483976E+00 4.342389293E-03
 1.216123343E+00 4.430857487E-03
 1.217764854E+00 4.521128722E-03
 1.219408393E+00 4.613240249E-03
 1.221054316E+00 4.707225598E-03
 1.222702742E+00 4.803125747E-03
 1.224353909E+00 4.900981672E-03
 1.226007581E+00 5.000830628E-03
 1.227663875E+00 5.102713592E-03
 1.229322672E+00 5.206671543E-03
 1.230983615E+00 5.312749185E-03
 1.232646465E+00 5.420987494E-03
 1.234310985E+00 5.531431176E-03
 1.235976458E+00 5.644121207E-03
 1.237642407E+00 5.759109743E-03
 1.239308238E+00 5.876441486E-03
 1.240972757E+00 5.996164866E-03
 1.242635489E+00 6.118324585E-03
 1.244295120E+00 6.242972799E-03
 1.245950341E+00 6.370161660E-03
 1.247599602E+00 6.499943323E-03
 1.249241590E+00 6.632366218E-03
 1.250873923E+00 6.767489947E-03
 1.252494574E+00 6.905362941E-03
 1.254100919E+00 7.046048529E-03
 1.255689740E+00 7.189598866E-03
 1.257256985E+00 7.336073555E-03
 1.258798599E+00 7.485532202E-03
 1.260308743E+00 7.638034411E-03
 1.261781573E+00 7.793643512E-03
 1.263208985E+00 7.952426560E-03
 1.264581561E+00 8.114439435E-03
 1.265887499E+00 8.279756643E-03
 1.267112255E+00 8.448441513E-03
 1.268236637E+00 8.620561101E-03
 1.269235849E+00 8.796186186E-03
 1.270077825E+00 8.975395001E-03
 1.270722628E+00 9.158250876E-03
 1.271124840E+00 9.344832040E-03
 1.271236062E+00 9.535213001E-03
 1.271034002E+00 9.729475714E-03
 1.270558238E+00 9.927694686E-03
 1.269907475E+00 1.012995187E-02
 1.269195199E+00 1.033632923E-02
 1.268501997E+00 1.054691244E-02
 1.267857671E+00 1.076178346E-02
 1.267248392E+00 1.098103542E-02
 1.266650677E+00 1.120475028E-02
 1.266051054E+00 1.143302489E-02
 1.265444160E+00 1.166595239E-02
 1.264827371E+00 1.190362219E-02
 1.264200330E+00 1.214613486E-02
 1.263562918E+00 1.239358727E-02
 1.262914658E+00 1.264608372E-02
 1.262255669E+00 1.290372480E-02
 1.261585712E+00 1.316661108E-02
 1.260904670E+00 1.343485434E-02
 1.260212541E+00 1.370855886E-02
 1.259508848E+00 1.398784388E-02
 1.258793950E+00 1.427282114E-02
 1.258067131E+00 1.456360240E-02
 1.257328987E+00 1.486030687E-02
 1.256578684E+00 1.516305376E-02
 1.255816460E+00 1.547196973E-02
 1.255042076E+00 1.578718051E-02
 1.254255533E+00 1.610881463E-02
 1.253456593E+00 1.643699780E-02
 1.252645135E+00 1.677187160E-02
 1.251820922E+00 1.711356267E-02
 1.250984073E+00 1.746221259E-02
 1.250134468E+00 1.781797037E-02
 1.249271631E+00 1.818097755E-02
 1.248395801E+00 1.855138317E-02
 1.247506738E+00 1.892932877E-02
 1.246604204E+00 1.931497827E-02
 1.245688438E+00 1.970848069E-02
 1.244758964E+00 2.010999992E-02
 1.243815899E+00 2.051969990E-02
 1.242859006E+00 2.093774453E-02
 1.241888285E+00 2.136431262E-02
 1.240903378E+00 2.179956809E-02
 1.239904642E+00 2.224368975E-02
 1.238891721E+00 2.269686386E-02
 1.237864494E+00 2.315926179E-02
 1.236822963E+00 2.363108471E-02
 1.235767126E+00 2.411251888E-02
 1.234696627E+00 2.460376546E-02
 1.233611703E+00 2.510501817E-02
 1.232512116E+00 2.561648563E-02
 1.231397748E+00 2.613836899E-02
 1.230268717E+00 2.667088434E-02
 1.229125023E+00 2.721424773E-02
 1.227966428E+00 2.776868269E-02
 1.226792812E+00 2.833441272E-02
 1.225604534E+00 2.891167626E-02
 1.224400997E+00 2.950068936E-02
 1.223182797E+00 3.010170534E-02
 1.221949458E+00 3.071497008E-02
 1.220701218E+00 3.134072199E-02
 1.219437838E+00 3.197922930E-02
 1.218159556E+00 3.263073787E-02
 1.216866255E+00 3.329552338E-02
 1.215557933E+00 3.397385404E-02
 1.214234948E+00 3.466600552E-02
 1.212896824E+00 3.537225351E-02
 1.211543918E+00 3.609288856E-02
 1.210176110E+00 3.682820871E-02
 1.208793640E+00 3.757851198E-02
 1.207396507E+00 3.834409639E-02
 1.205984712E+00 3.912528232E-02
 1.204558372E+00 3.992238268E-02
 1.203117609E+00 4.073571786E-02
 1.201662421E+00 4.156563058E-02
 1.200193048E+00 4.241244122E-02
 1.198709726E+00 4.327650741E-02
 1.197212219E+00 4.415817931E-02
 1.195701003E+00 4.505781457E-02
 1.194175959E+00 4.597577825E-02
 1.192637563E+00 4.691244289E-02
 1.191085696E+00 4.786818847E-02
 1.189520597E+00 4.884340242E-02
 1.187942743E+00 4.983849451E-02
 1.186351895E+00 5.085385218E-02
 1.184748650E+00 5.188989267E-02
 1.183132887E+00 5.294704810E-02
 1.181504965E+00 5.402573571E-02
 1.179865360E+00 5.512640253E-02
 1.178214073E+00 5.624948815E-02
 1.176551342E+00 5.739546195E-02
 1.174877644E+00 5.856477842E-02
 1.173193097E+00 5.975791439E-02
 1.171498060E+00 6.097536162E-02
 1.169792891E+00 6.221761182E-02
 1.168077707E+00 6.348517537E-02
 1.166353226E+00 6.477855146E-02
 1.164619446E+00 6.609828770E-02
 1.162876844E+00 6.744490564E-02
 1.161125779E+00 6.881895661E-02
 1.159366488E+00 7.022100687E-02
 1.157599568E+00 7.165161520E-02
 1.155825377E+00 7.311137766E-02
 1.154044151E+00 7.460086793E-02
 1.152256489E+00 7.612071931E-02
 1.150462747E+00 7.767151296E-02
 1.148663402E+00 7.925391197E-02
 1.146858692E+00 8.086855710E-02
 1.145049214E+00 8.251608908E-02
 1.143235564E+00 8.419719338E-02
 1.141417980E+00 8.591254056E-02
 1.139596939E+00 8.766283095E-02
 1.137773037E+00 8.944877982E-02
 1.135946751E+00 9.127111733E-02
 1.134118676E+00 9.313058853E-02
 1.132288933E+00 9.502793849E-02
 1.130458355E+00 9.696392715E-02
 1.128627419E+00 9.893937409E-02
 1.126796603E+00 1.009550691E-01
 1.124966383E+00 1.030118167E-01
 1.123137355E+00 1.051104814E-01
 1.121310115E+00 1.072518975E-01
 1.119484901E+00 1.094369292E-01
 1.117662549E+00 1.116664857E-01
 1.115843415E+00 1.139414757E-01
 1.114028215E+00 1.162627935E-01
 1.112217307E+00 1.186314225E-01
 1.110411406E+00 1.210482866E-01
 1.108610749E+00 1.235143989E-01
 1.106816292E+00 1.260307580E-01
 1.105028152E+00 1.285983771E-01
 1.103247166E+00 1.312183142E-01
 1.101473808E+00 1.338916272E-01
 1.099708438E+00 1.366193891E-01
 1.097951889E+00 1.394027323E-01
 1.096204400E+00 1.422427893E-01
 1.094466567E+00 1.451406926E-01
 1.092738986E+00 1.480976492E-01
 1.091022015E+00 1.511148363E-01
 1.089316368E+00 1.541934907E-01
 1.087622166E+00 1.573348790E-01
 1.085940361E+00 1.605402529E-01
 1.084270954E+00 1.638109386E-01
 1.082614899E+00 1.671482474E-01
 1.080972195E+00 1.705535650E-01
 1.079343677E+00 1.740282476E-01
 1.077729583E+00 1.775737107E-01
 1.076130152E+00 1.811914295E-01
 1.074546099E+00 1.848828346E-01
 1.072977781E+00 1.886494458E-01
 1.071425438E+00 1.924927980E-01
 1.069889665E+00 1.964144409E-01
 1.068370461E+00 2.004159838E-01
 1.066868544E+00 2.044990510E-01
 1.065384150E+00 2.086653262E-01
 1.063917398E+00 2.129164487E-01
 1.062468767E+00 2.172542065E-01
 1.061038494E+00 2.216802984E-01
 1.059626818E+00 2.261966020E-01
 1.058234096E+00 2.308049053E-01
 1.056860566E+00 2.355070859E-01
 1.055506349E+00 2.403050512E-01
 1.054171562E+00 2.452007979E-01
 1.052856565E+00 2.501962483E-01
 1.051561594E+00 2.552934885E-01
 1.050286651E+00 2.604945600E-01
 1.049031854E+00 2.658016384E-01
 1.047797441E+00 2.712168097E-01
 1.046583533E+00 2.767422795E-01
 1.045389891E+00 2.823803425E-01
 1.044217110E+00 2.881332934E-01
 1.043064833E+00 2.940034270E-01
 1.041933179E+00 2.999931276E-01
 1.040822268E+00 3.061048985E-01
 1.039732099E+00 3.123411536E-01
 1.038662672E+00 3.187044859E-01
 1.037613869E+00 3.251974285E-01
 1.036585569E+00 3.318226933E-01
 1.035577893E+00 3.385829031E-01
 1.034590721E+00 3.454808295E-01
 1.033624053E+00 3.525193036E-01
 1.032677531E+00 3.597011864E-01
 1.031751275E+00 3.670293689E-01
 1.030845046E+00 3.745068610E-01
 1.029958844E+00 3.821366727E-01
 1.029092193E+00 3.899219334E-01
 1.028245330E+00 3.978658020E-01
 1.027417898E+00 4.059715271E-01
 1.026609659E+00 4.142423570E-01
 1.025820494E+00 4.226817191E-01
 1.025050163E+00 4.312930107E-01
 1.024298429E+00 4.400797188E-01
 1.023565054E+00 4.490454495E-01
 1.022849917E+00 4.581938386E-01
 1.022152662E+00 4.675286412E-01
 1.021473169E+00 4.770535827E-01
 1.020811081E+00 4.867725968E-01
 1.020166159E+00 4.966895580E-01
 1.019538045E+00 5.068086386E-01
 1.018926740E+00 5.171338320E-01
 1.018331647E+00 5.276693702E-01
 1.017752767E+00 5.384196043E-01
 1.017189622E+00 5.493887663E-01
 1.016641974E+00 5.605814457E-01
 1.016109586E+00 5.720021725E-01
 1.015592098E+00 5.836555958E-01
 1.015089393E+00 5.955463648E-01
 1.014600873E+00 6.076794267E-01
 1.014126420E+00 6.200596690E-01
 1.013665915E+00 6.326921582E-01
 1.013218760E+00 6.455819607E-01
 1.012784839E+00 6.587343812E-01
 1.012363911E+00 6.721547842E-01
 1.011955500E+00 6.858485341E-01
 1.011559248E+00 6.998213530E-01
 1.011175156E+00 7.140787840E-01
 1.010802865E+00 7.286266685E-01
 1.010442019E+00 7.434709668E-01
 1.010092258E+00 7.586176991E-01
 1.009753466E+00 7.740730047E-01
 1.009425282E+00 7.898432016E-01
 1.009107590E+00 8.059346080E-01
 1.008799791E+00 8.223538995E-01
 1.008501887E+00 8.391076922E-01
 1.008213520E+00 8.562028408E-01
 1.007934451E+00 8.736462593E-01
 1.007664442E+00 8.914450407E-01
 1.007403374E+00 9.096063972E-01
 1.007150650E+00 9.281377792E-01
 1.006906390E+00 9.470467567E-01
 1.006670237E+00 9.663408399E-01
 1.006441832E+00 9.860281348E-01
 1.006221056E+00 1.006116509E+00
 1.006007791E+00 1.026614070E+00
 1.005801678E+00 1.047529340E+00
 1.005602479E+00 1.068870544E+00
 1.005410194E+00 1.090646625E+00
 1.005224228E+00 1.112866402E+00
 1.005044818E+00 1.135538816E+00
 1.004871488E+00 1.158673048E+00
 1.004704237E+00 1.182278752E+00
 1.004542708E+00 1.206365228E+00
 1.004386783E+00 1.230942488E+00
 1.004236221E+00 1.256020427E+00
 1.004091024E+00 1.281609297E+00
 1.003951073E+00 1.307719469E+00
 1.003815889E+00 1.334361672E+00
 1.003685474E+00 1.361546636E+00
 1.003559709E+00 1.389285326E+00
 1.003438473E+00 1.417589188E+00
 1.003321528E+00 1.446469784E+00
 1.003208876E+00 1.475938678E+00
 1.003100157E+00 1.506007910E+00
 1.002995253E+00 1.536689758E+00
 1.002894282E+00 1.567996740E+00
 1.002797008E+00 1.599941492E+00
 1.002703190E+00 1.632537007E+00
 1.002612829E+00 1.665796638E+00
 1.002525806E+00 1.699733853E+00
 1.002442002E+00 1.734362483E+00
 1.002361298E+00 1.769696712E+00
 1.002283454E+00 1.805750608E+00
 1.002208710E+00 1.842539191E+00
 1.002136588E+00 1.880077124E+00
 1.002067208E+00 1.918379903E+00
 1.002000451E+00 1.957463026E+00
 1.001936197E+00 1.997342348E+00
 1.001874328E+00 2.038034201E+00
 1.001814842E+00 2.079555035E+00
 1.001757622E+00 2.121921778E+00
 1.001702666E+00 2.165151596E+00
 1.001649737E+00 2.209262133E+00
 1.001598954E+00 2.254271507E+00
 1.001550078E+00 2.300197601E+00
 1.001503110E+00 2.347059488E+00
 1.001458049E+00 2.394876242E+00
 1.001414776E+00 2.443666935E+00
 1.001373172E+00 2.493451595E+00
 1.001333237E+00 2.544250727E+00
 1.001294971E+00 2.596084595E+00
 1.001258373E+00 2.648974657E+00
 1.001223087E+00 2.702942133E+00
 1.001189470E+00 2.758009195E+00
 1.001157165E+00 2.814198017E+00
 1.001126289E+00 2.871531487E+00
 1.001096725E+00 2.930033207E+00
 1.001068473E+00 2.989726782E+00
 1.001041532E+00 3.050636292E+00
 1.001015782E+00 3.112786770E+00
 1.000991344E+00 3.176203728E+00
 1.000967979E+00 3.240912437E+00
 1.000945687E+00 3.306939363E+00
 1.000924706E+00 3.374311686E+00
 1.000904560E+00 3.443056345E+00
 1.000885844E+00 3.513201714E+00
 1.000867963E+00 3.584775925E+00
 1.000851154E+00 3.657808542E+00
 1.000835419E+00 3.732329130E+00
 1.000820518E+00 3.808367729E+00
 1.000806808E+00 3.885955572E+00
 1.000794053E+00 3.965123892E+00
 1.000782371E+00 4.045905113E+00
 1.000771642E+00 4.128332138E+00
 1.000761867E+00 4.212438583E+00
 1.000753164E+00 4.298258781E+00
 1.000745535E+00 4.385827065E+00
 1.000738978E+00 4.475179195E+00
 1.000733495E+00 4.566351891E+00
 1.000729084E+00 4.659382343E+00
 1.000725985E+00 4.754307747E+00
 1.000724077E+00 4.851167202E+00
 1.000723600E+00 4.949999809E+00
ZONE T="FUN3D"
 0.000000000E+00 0.000000000E+00
 3.790159011E-03 4.962086564E-07
 7.581407670E-03 9.916723229E-07
 1.137480047E-02 1.487135933E-06
 1.517139003E-02 1.982599542E-06
 1.897222921E-02 2.478063152E-06
 2.277836204E-02 2.977252052E-06
 2.659083530E-02 3.476440952E-06
 3.041068837E-02 3.975629625E-06
 3.423894942E-02 4.478543815E-06
 3.807665035E-02 4.981458005E-06
 4.192480817E-02 5.488097486E-06
 4.578443244E-02 5.998462257E-06
 4.965653270E-02 6.508827028E-06
 5.354209989E-02 7.022917089E-06
 5.744211003E-02 7.537007150E-06
 6.135753915E-02 8.058547792E-06
 6.528934091E-02 8.580088434E-06
 6.923846900E-02 9.105354366E-06
 7.320584357E-02 9.638070878E-06
 7.719239593E-02 1.017078739E-05
 8.119900525E-02 1.070722919E-05
 8.522656560E-02 1.125112158E-05
 8.927594870E-02 1.179873925E-05
 9.334798902E-02 1.235008222E-05
 9.744350612E-02 1.290515047E-05
 1.015633270E-01 1.346766931E-05
 1.057082266E-01 1.403391343E-05
 1.098789424E-01 1.460760814E-05
 1.140762493E-01 1.518502813E-05
 1.183008328E-01 1.576989962E-05
 1.225533783E-01 1.636222078E-05
 1.268345565E-01 1.696199251E-05
 1.311450005E-01 1.756548954E-05
 1.354853213E-01 1.818016244E-05
 1.398560554E-01 1.879856063E-05
 1.442577839E-01 1.942440940E-05
 1.486909986E-01 2.006143404E-05
 1.531561911E-01 2.070590926E-05
 1.576537788E-01 2.135783507E-05
 1.621842086E-01 2.201721145E-05
 1.667478383E-01 2.268776370E-05
 1.713449955E-01 2.336576654E-05
 1.759760082E-01 2.405494524E-05
 1.806411147E-01 2.475157453E-05
 1.853405684E-01 2.545937969E-05
 1.900745332E-01 2.617836071E-05
 1.948431730E-01 2.690851761E-05
 1.996465772E-01 2.764612509E-05
 2.044848353E-01 2.839863373E-05
 2.093579471E-01 2.916231824E-05
 2.142658979E-01 2.993717862E-05
 2.192086279E-01 3.072321488E-05
 2.241860479E-01 3.152042700E-05
 2.291980088E-01 3.233254029E-05
 2.342442572E-01 3.315955473E-05
 2.393246442E-01 3.399774505E-05
 2.444388270E-01 3.485083653E-05
 2.495864928E-01 3.571882917E-05
 2.547672987E-01 3.659799768E-05
 2.599807680E-01 3.749579264E-05
 2.652264833E-01 3.840848876E-05
 2.705039084E-01 3.933236076E-05
 2.758125067E-01 4.027858449E-05
 2.811516821E-01 4.123598410E-05
 2.865207791E-01 4.221201016E-05
 2.919191122E-01 4.320666267E-05
 2.973459661E-01 4.421621634E-05
 3.028005362E-01 4.524812175E-05
 3.082820177E-01 4.629492832E-05
 3.137895167E-01 4.736036135E-05
 3.193221986E-01 4.844442083E-05
 3.248790503E-01 4.955083205E-05
 3.304591179E-01 5.067586972E-05
 3.360613883E-01 5.182325913E-05
 3.416847587E-01 5.298927499E-05
 3.473281562E-01 5.417764260E-05
 3.529903889E-01 5.538836194E-05
 3.586704135E-01 5.662143303E-05
 3.643669188E-01 5.787685586E-05
 3.700786829E-01 5.915835573E-05
 3.758044839E-01 6.046220733E-05
 3.815430105E-01 6.178840704E-05
 3.872929215E-01 6.314441271E-05
 3.930529356E-01 6.452277012E-05
 3.988215327E-01 6.592720456E-05
 4.045973420E-01 6.736144132E-05
 4.103788733E-01 6.882175512E-05
 4.161645770E-01 7.030814595E-05
 4.219529033E-01 7.182433910E-05
 4.277422428E-01 7.337033458E-05
 4.335309267E-01 7.494613237E-05
 4.393173456E-01 7.655173249E-05
 4.450997412E-01 7.818713493E-05
 4.508763850E-01 7.985606499E-05
 4.566456378E-01 8.155852265E-05
 4.624056518E-01 8.329078264E-05
 4.681546986E-01 8.506029553E-05
 4.738910198E-01 8.686333604E-05
 4.796128273E-01 8.869990415E-05
 4.853183627E-01 9.057745046E-05
 4.910058975E-01 9.248852439E-05
 4.966737032E-01 9.443685121E-05
 5.023200512E-01 9.642243094E-05
 5.079432726E-01 9.844898887E-05
 5.135417581E-01 1.005165250E-04
 5.191138387E-01 1.026250393E-04
 5.246580243E-01 1.047708065E-04
 5.301728249E-01 1.069650025E-04
 5.356568694E-01 1.092001767E-04
 5.411087275E-01 1.114800543E-04
 5.465271473E-01 1.138046355E-04
 5.519110560E-01 1.161739201E-04
 5.572592020E-01 1.185953588E-04
 5.625706911E-01 1.210615010E-04
 5.678446293E-01 1.235760719E-04
 5.730801821E-01 1.261427969E-04
 5.782766342E-01 1.287616760E-04
 5.834335685E-01 1.314289839E-04
 5.885503292E-01 1.341558964E-04
 5.936266780E-01 1.369312376E-04
 5.986624360E-01 1.397661836E-04
 6.036573052E-01 1.426570088E-04
 6.086114645E-01 1.456037135E-04
 6.135248542E-01 1.486137480E-04
 6.183977723E-01 1.516796619E-04
 6.232304573E-01 1.548126311E-04
 6.280234456E-01 1.580052049E-04
 6.327769756E-01 1.612611086E-04
 6.374918818E-01 1.645840675E-04
 6.421685815E-01 1.679740817E-04
 6.468080282E-01 1.714311511E-04
 6.514107585E-01 1.749590010E-04
 6.559777260E-01 1.785576314E-04
 6.605098248E-01 1.822307677E-04
 6.650080681E-01 1.859746844E-04
 6.694733500E-01 1.897968323E-04
 6.739066839E-01 1.936972112E-04
 6.783091426E-01 1.976720960E-04
 6.826817393E-01 2.017326624E-04
 6.870255470E-01 2.058714599E-04
 6.913417578E-01 2.100959391E-04
 6.956314445E-01 2.144023747E-04
 6.998955607E-01 2.188019425E-04
 7.041353583E-01 2.232871921E-04
 7.083518505E-01 2.278618485E-04
 7.125462294E-01 2.325296373E-04
 7.167195678E-01 2.372942836E-04
 7.208728194E-01 2.421557874E-04
 7.250070572E-01 2.471141634E-04
 7.291234136E-01 2.521731076E-04
 7.332229614E-01 2.573326346E-04
 7.373065948E-01 2.626001951E-04
 7.413753271E-01 2.679720637E-04
 7.454302311E-01 2.734556911E-04
 7.494720817E-01 2.790473518E-04
 7.535019517E-01 2.847544965E-04
 7.575207353E-01 2.905771253E-04
 7.615292668E-01 2.965189633E-04
 7.655285597E-01 3.025800106E-04
 7.695192695E-01 3.087639925E-04
 7.735024691E-01 3.150746343E-04
 7.774787545E-01 3.215119359E-04
 7.814489603E-01 3.280796227E-04
 7.854139209E-01 3.347814200E-04
 7.893743515E-01 3.416210529E-04
 7.933309078E-01 3.485985217E-04
 7.972844839E-01 3.557175514E-04
 8.012355566E-01 3.629818675E-04
 8.051849604E-01 3.703951952E-04
 8.091332912E-01 3.779575345E-04
 8.130811453E-01 3.856726107E-04
 8.170291781E-01 3.935478744E-04
 8.209779263E-01 4.015796003E-04
 8.249279857E-01 4.097752389E-04
 8.288800120E-01 4.181385157E-04
 8.328343630E-01 4.266731557E-04
 8.367917538E-01 4.353791592E-04
 8.407526016E-01 4.442639765E-04
 8.447173238E-01 4.533276078E-04
 8.486863971E-01 4.625775036E-04
 8.526604176E-01 4.720136640E-04
 8.566396832E-01 4.816435394E-04
 8.606245518E-01 4.914671299E-04
 8.646155596E-01 5.014918861E-04
 8.686130643E-01 5.117215333E-04
 8.726173043E-01 5.221597967E-04
 8.766286969E-01 5.328104016E-04
 8.806475401E-01 5.436733481E-04
 8.846741319E-01 5.547635374E-04
 8.887087703E-01 5.660772440E-04
 8.927516937E-01 5.776181933E-04
 8.968030810E-01 5.893975613E-04
 9.008631706E-01 6.014153478E-04
 9.049321413E-01 6.136790034E-04
 9.090102315E-01 6.261922535E-04
 9.130975604E-01 6.389588234E-04
 9.171941876E-01 6.519861636E-04
 9.213001728E-01 6.652779994E-04
 9.254156351E-01 6.788380560E-04
 9.295405149E-01 6.926775095E-04
 9.336749315E-01 7.068000850E-04
 9.378188252E-01 7.212057826E-04
 9.419720769E-01 7.359095034E-04
 9.461344481E-01 7.509112475E-04
 9.503061175E-01 7.662147400E-04
 9.544866681E-01 7.818348822E-04
 9.586758614E-01 7.977716741E-04
 9.628735781E-01 8.140288410E-04
 9.670794010E-01 8.306212840E-04
 9.712929726E-01 8.475527284E-04
 9.755139351E-01 8.648268995E-04
 9.797417521E-01 8.824512479E-04
 9.839760065E-01 9.004369495E-04
 9.882158637E-01 9.187877295E-04
 9.924609065E-01 9.375147638E-04
 9.967103601E-01 9.566217777E-04
 1.000963330E+00 9.761162219E-04
 1.005219102E+00 9.960092138E-04
 1.009476423E+00 1.016304595E-03
 1.013734579E+00 1.037017209E-03
 1.017992258E+00 1.058150781E-03
 1.022248149E+00 1.079712762E-03
 1.026501060E+00 1.101718051E-03
 1.030749321E+00 1.124166651E-03
 1.034991622E+00 1.147073461E-03
 1.039225936E+00 1.170449657E-03
 1.043450594E+00 1.194298966E-03
 1.047663569E+00 1.218636287E-03
 1.051862717E+00 1.243469073E-03
 1.056045771E+00 1.268808497E-03
 1.060210228E+00 1.294662012E-03
 1.064353585E+00 1.321040792E-03
 1.068472981E+00 1.347959740E-03
 1.072565436E+00 1.375426305E-03
 1.076627731E+00 1.403451664E-03
 1.080656886E+00 1.432050718E-03
 1.084649205E+00 1.461227192E-03
 1.088601112E+00 1.491003437E-03
 1.092508912E+00 1.521383179E-03
 1.096368909E+00 1.552381320E-03
 1.100177050E+00 1.584012760E-03
 1.103929281E+00 1.616288675E-03
 1.107621670E+00 1.649220241E-03
 1.111250520E+00 1.682822360E-03
 1.114811897E+00 1.717109932E-03
 1.118302107E+00 1.752097858E-03
 1.121717930E+00 1.787797315E-03
 1.125056267E+00 1.824223204E-03
 1.128314495E+00 1.861390425E-03
 1.131490588E+00 1.899313880E-03
 1.134582639E+00 1.938012196E-03
 1.137589693E+00 1.977500273E-03
 1.140511513E+00 2.017789287E-03
 1.143348098E+00 2.058901591E-03
 1.146100283E+00 2.100852085E-03
 1.148769617E+00 2.143655671E-03
 1.151357770E+00 2.187330974E-03
 1.153867602E+00 2.231892897E-03
 1.156301737E+00 2.277367515E-03
 1.158663750E+00 2.323766006E-03
 1.160956979E+00 2.371110721E-03
 1.163185358E+00 2.419420285E-03
 1.165352821E+00 2.468713326E-03