# Ima C. Effdeer
# Colorful Fluid Dynamics, Inc.
# i.c.e@cfdtillithurts.com,  (911) 911-9111
# Provided structured 3D grid number 1, 7-zone, 4.09 million grid points total
# 8 time steps per cycle (way too few!) 
# Code: CFL9D: upwind-biased, finite-volume, structured, RANS
# globally 2nd order in space, 2nd order in time
# Spalart-Allmaras turb model
# other info
variables="x, mm","y, mm","z, mm","u/Uinf","v/Uinf","w/Uinf","uu/Uinf^2","vv/Uinf^2","ww/Uinf^2","uv/Uinf^2","uw/Uinf^2","vw/Uinf^2"
zone t="data along x=0, y=0"
    0.   0.   0.   1.1234   0.6687   0.7123  0.00034  0.00666  -0.00234   0.00055  0.00094  -0.00055
   ...etc
    0.   0.  50.   1.1234   0.9687   0.1123  0.00004  0.00066  -0.00034   0.00005  0.00194  -0.00255
zone t="data along x=44.45mm, y=0"
  44.45  0.   0.   1.1234   0.6687   0.7123  0.00034  0.00666  -0.00234   0.00055  0.00094  -0.00055
   ...etc
  44.45  0.  50.   1.1234   0.9687   0.1123  0.00004  0.00066  -0.00034   0.00005  0.00194  -0.00255
zone t="data along x=50.8mm, y=0"
  50.80  0.   0.   1.1234   0.6687   0.7123  0.00034  0.00666  -0.00234   0.00055  0.00094  -0.00055
   ...etc
  50.80  0.  50.   1.1234   0.9687   0.1123  0.00004  0.00066  -0.00034   0.00005  0.00194  -0.00255
zone t="data along x=57.15mm, y=0"
  57.15  0.   0.   1.1234   0.6687   0.7123  0.00034  0.00666  -0.00234   0.00055  0.00094  -0.00055
   ...etc
  57.15  0.  50.   1.1234   0.9687   0.1123  0.00004  0.00066  -0.00034   0.00005  0.00194  -0.00255
zone t="data along x=63.5mm, y=0"
  63.50  0.   0.   1.1234   0.6687   0.7123  0.00034  0.00666  -0.00234   0.00055  0.00094  -0.00055
   ...etc
  63.50  0.  50.   1.1234   0.9687   0.1123  0.00004  0.00066  -0.00034   0.00005  0.00194  -0.00255
zone t="data along x=76.2mm, y=0"
  76.20  0.   0.   1.1234   0.6687   0.7123  0.00034  0.00666  -0.00234   0.00055  0.00094  -0.00055
   ...etc
  76.20  0.  50.   1.1234   0.9687   0.1123  0.00004  0.00066  -0.00034   0.00005  0.00194  -0.00255
zone t="data along x=101.6mm, y=0"
 101.60  0.   0.   1.1234   0.6687   0.7123  0.00034  0.00666  -0.00234   0.00055  0.00094  -0.00055
   ...etc
 101.60  0.  50.   1.1234   0.9687   0.1123  0.00004  0.00066  -0.00034   0.00005  0.00194  -0.00255
zone t="data along x=57.15mm, z=5mm"
  57.15 -25.  5.   1.1234   0.6687   0.7123  0.00034  0.00666  -0.00234   0.00055  0.00094  -0.00055
   ...etc
  57.15  25.  5.   1.1234   0.9687   0.1123  0.00004  0.00066  -0.00034   0.00005  0.00194  -0.00255
zone t="data along x=57.15mm, z=10mm"
  57.15 -25. 10.   1.1234   0.6687   0.7123  0.00034  0.00666  -0.00234   0.00055  0.00094  -0.00055
   ...etc
  57.15  25. 10.   1.1234   0.9687   0.1123  0.00004  0.00066  -0.00034   0.00005  0.00194  -0.00255
zone t="data along x=57.15mm, z=20mm"
  57.15 -25. 20.   1.1234   0.6687   0.7123  0.00034  0.00666  -0.00234   0.00055  0.00094  -0.00055
   ...etc
  57.15  25. 20.   1.1234   0.9687   0.1123  0.00004  0.00066  -0.00034   0.00005  0.00194  -0.00255
zone t="data along x=63.5mm, z=5mm"
  63.50 -25.  5.   1.1234   0.6687   0.7123  0.00034  0.00666  -0.00234   0.00055  0.00094  -0.00055
   ...etc
  63.50  25.  5.   1.1234   0.9687   0.1123  0.00004  0.00066  -0.00034   0.00005  0.00194  -0.00255
zone t="data along x=63.5mm, z=10mm"
  63.50 -25. 10.   1.1234   0.6687   0.7123  0.00034  0.00666  -0.00234   0.00055  0.00094  -0.00055
   ...etc
  63.50  25. 10.   1.1234   0.9687   0.1123  0.00004  0.00066  -0.00034   0.00005  0.00194  -0.00255
zone t="data along x=63.5mm, z=20mm"
  63.50 -25. 20.   1.1234   0.6687   0.7123  0.00034  0.00666  -0.00234   0.00055  0.00094  -0.00055
   ...etc
  63.50  25. 20.   1.1234   0.9687   0.1123  0.00004  0.00066  -0.00034   0.00005  0.00194  -0.00255
zone t="data along z=0.4mm, y=0"
  47.625  0.  0.4  1.1234   0.6687   0.7123  0.00034  0.00666  -0.00234   0.00055  0.00094  -0.00055
  ...etc
  53.975  0.  0.4  1.1234   0.9687   0.1123  0.00004  0.00066  -0.00034   0.00005  0.00194  -0.00255
zone t="data along z=10mm, y=0"
  45.00   0. 10.   1.1234   0.6687   0.7123  0.00034  0.00666  -0.00234   0.00055  0.00094  -0.00055
  ...etc
  70.00   0. 10.   1.1234   0.9687   0.1123  0.00004  0.00066  -0.00034   0.00005  0.00194  -0.00255
