# turbulence results for BSL model at x=0.75 
VARIABLES = "omega","k","mu_t","y-0.05"
ZONE T="CFL3D"
 5.123432636E+00 5.957148837E-12 1.133425818E-12 2.503394967E-07
 9.430868626E-01 1.647791487E-10 1.703202718E-10 7.458031064E-07
 3.312867582E-01 1.072442246E-09 3.155628203E-09 1.241266773E-06
 1.603341997E-01 3.695979744E-09 2.247086073E-08 1.736730383E-06
 9.281736612E-02 9.191219341E-09 9.652962518E-08 2.235919283E-06
 6.004228815E-02 1.883949530E-08 3.058646598E-07 2.731382892E-06
 4.184579477E-02 3.402594473E-08 7.926405488E-07 3.230571792E-06
 3.075394221E-02 5.623128629E-08 1.782361664E-06 3.729760692E-06
 2.351424843E-02 8.702934196E-08 3.607896588E-06 4.232674655E-06
 1.853633672E-02 1.280877058E-07 6.736029263E-06 4.735588846E-06
 1.497077756E-02 1.811704067E-07 1.179680476E-05 5.242228326E-06
 1.233141404E-02 2.481419585E-07 1.961597991E-05 5.748867807E-06
 1.032412704E-02 3.309724832E-07 3.125089279E-05 6.255507287E-06
 8.762683719E-03 4.317435014E-07 4.803015690E-05 6.769597348E-06
 7.524595596E-03 5.526547966E-07 7.159746019E-05 7.283687410E-06
 6.526661105E-03 6.960312930E-07 1.039599811E-04 7.801502761E-06
 5.710782949E-03 8.643309570E-07 1.475416502E-04 8.323043403E-06
 5.035407841E-03 1.060152272E-06 2.052417258E-04 8.848309335E-06
 4.470186774E-03 1.286242764E-06 2.804990218E-04 9.373575267E-06
 3.992538899E-03 1.545507416E-06 3.773619537E-04 9.906291780E-06
 3.585383995E-03 1.841016456E-06 5.005649873E-04 1.044273358E-05
 3.235611366E-03 2.176014732E-06 6.556111039E-04 1.098290068E-05
 2.933022100E-03 2.553927516E-06 8.488610038E-04 1.152679306E-05
 2.669587033E-03 2.978370503E-06 1.087628654E-03 1.207813602E-05
 2.438915893E-03 3.453154932E-06 1.380282803E-03 1.262947899E-05
 2.235870576E-03 3.982293947E-06 1.736354665E-03 1.319199782E-05
 2.056283643E-03 4.570007604E-06 2.166650258E-03 1.375451666E-05
 1.896744012E-03 5.220724233E-06 2.683368046E-03 1.432448607E-05
 1.754439785E-03 5.939085440E-06 3.300218843E-03 1.490190607E-05
 1.627034741E-03 6.729940196E-06 4.032548051E-03 1.548305227E-05
 1.512575545E-03 7.598344837E-06 4.897460341E-03 1.607164813E-05
 1.409418066E-03 8.549553058E-06 5.913935602E-03 1.666769458E-05
 1.316170557E-03 9.589009096E-06 7.102948148E-03 1.726746632E-05
 1.231648261E-03 1.072232590E-05 8.487576619E-03 1.787841393E-05
 1.154837315E-03 1.195527057E-05 1.009310037E-02 1.849308683E-05
 1.084865304E-03 1.329373845E-05 1.194708515E-02 1.911521031E-05
 1.020979136E-03 1.474371584E-05 1.407944970E-02 1.974850966E-05
 9.625244420E-04 1.631124724E-05 1.652251743E-02 2.038553430E-05
 9.089309024E-04 1.800239261E-05 1.931103505E-02 2.103373481E-05
 8.596995031E-04 1.982316826E-05 2.248216793E-02 2.168938590E-05
 8.143915329E-04 2.177949136E-05 2.607546560E-02 2.235621287E-05
 7.726202602E-04 2.387710811E-05 3.013278916E-02 2.303049041E-05
 7.340432494E-04 2.612153730E-05 3.469821066E-02 2.371221854E-05
 6.983565399E-04 2.851797217E-05 3.981787339E-02 2.440512253E-05
 6.652891752E-04 3.107120210E-05 4.553979635E-02 2.510920240E-05
 6.345992442E-04 3.378553811E-05 5.191368610E-02 2.582445813E-05
 6.060700398E-04 3.666470002E-05 5.899066851E-02 2.654716445E-05
 5.795067409E-04 3.971174374E-05 6.682302058E-02 2.728104664E-05
 5.547342589E-04 4.292897574E-05 7.546388358E-02 2.802610470E-05
 5.315945600E-04 4.631785123E-05 8.496690542E-02 2.878233863E-05
 5.099446862E-04 4.987893408E-05 9.538596869E-02 2.955347372E-05
 4.896557075E-04 5.361178410E-05 1.067747846E-01 3.033205940E-05
 4.706105101E-04 5.751495337E-05 1.191866100E-01 3.112554623E-05
 4.527031269E-04 6.158591714E-05 1.326739490E-01 3.193393422E-05
 4.358373117E-04 6.582106289E-05 1.472881734E-01 3.274977280E-05
 4.199258983E-04 7.021568308E-05 1.630793214E-01 3.358423783E-05
 4.048896371E-04 7.476402970E-05 1.800958514E-01 3.442987872E-05
 3.906566999E-04 7.945927791E-05 1.983843893E-01 3.529042078E-05
 3.771620395E-04 8.429364243E-05 2.179896384E-01 3.616213871E-05
 3.643465752E-04 8.925843576E-05 2.389542013E-01 3.705248309E-05
 3.521568142E-04 9.434414096E-05 2.613185346E-01 3.795400335E-05
 3.405444731E-04 9.954053530E-05 2.851209641E-01 3.887415005E-05
 3.294656926E-04 1.048367776E-04 3.103975356E-01 3.980919792E-05
 3.188810078E-04 1.102215610E-04 3.371823728E-01 4.076287223E-05
 3.087547084E-04 1.156832077E-04 3.655073047E-01 4.172772242E-05
 2.990544890E-04 1.212098214E-04 3.954024017E-01 4.271492435E-05
 2.897513332E-04 1.267893822E-04 4.268959463E-01 4.371702744E-05
 2.808189602E-04 1.324098703E-04 4.600144923E-01 4.473775698E-05
 2.722336794E-04 1.380594331E-04 4.947832227E-01 4.577338768E-05
 2.639742161E-04 1.437264145E-04 5.312258601E-01 4.683137013E-05
 2.560211578E-04 1.493994932E-04 5.693652034E-01 4.790797902E-05
 2.483571006E-04 1.550677262E-04 6.092228293E-01 4.900321437E-05
 2.409662411E-04 1.607206941E-04 6.508198977E-01 5.011707617E-05
 2.338342019E-04 1.663484582E-04 6.941767335E-01 5.125328971E-05
 2.269479301E-04 1.719417050E-04 7.393131256E-01 5.240812970E-05
 2.202955366E-04 1.774916745E-04 7.862488627E-01 5.358904673E-05
 2.138661512E-04 1.829903049E-04 8.350033164E-01 5.478859021E-05
 2.076497767E-04 1.884301309E-04 8.855959773E-01 5.601048542E-05
 2.016372164E-04 1.938043715E-04 9.380464554E-01 5.725473238E-05
 1.958199864E-04 1.991068712E-04 9.923743010E-01 5.852133108E-05
 1.901901996E-04 2.043321438E-04 1.048599601E+00 5.981400682E-05
 1.847405219E-04 2.094752999E-04 1.106742978E+00 6.112903066E-05
 1.794641139E-04 2.145320032E-04 1.166825056E+00 6.247013516E-05
 1.743545290E-04 2.194985718E-04 1.228866935E+00 6.383731670E-05
 1.694057282E-04 2.243718191E-04 1.292891026E+00 6.523057527E-05
 1.646119636E-04 2.291490528E-04 1.358919263E+00 6.664991088E-05
 1.599678362E-04 2.338281047E-04 1.426975131E+00 6.809532351E-05
 1.554682240E-04 2.384072432E-04 1.497082353E+00 6.956681318E-05
 1.511081500E-04 2.428851149E-04 1.569265366E+00 7.107183046E-05
 1.468830014E-04 2.472607885E-04 1.643549204E+00 7.259919948E-05
 1.427882380E-04 2.515336673E-04 1.719959855E+00 7.416009612E-05
 1.388195669E-04 2.557034604E-04 1.798523903E+00 7.575079508E-05
 1.349728409E-04 2.597701387E-04 1.879268765E+00 7.737502165E-05
 1.312441018E-04 2.637339931E-04 1.962222219E+00 7.902532525E-05
 1.276294788E-04 2.675955475E-04 2.047413588E+00 8.071288175E-05
 1.241252903E-04 2.713554422E-04 2.134871721E+00 8.243024058E-05
 1.207279565E-04 2.750145795E-04 2.224627495E+00 8.418112702E-05
 1.174340432E-04 2.785740071E-04 2.316711664E+00 8.596554107E-05
 1.142401961E-04 2.820348891E-04 2.411155939E+00 8.778720803E-05
 1.111431848E-04 2.853985061E-04 2.507992506E+00 8.964240260E-05
 1.081399096E-04 2.886662842E-04 2.607254744E+00 9.153485007E-05
 1.052273365E-04 2.918396494E-04 2.708976507E+00 9.346455045E-05
 1.024025405E-04 2.949201735E-04 2.813192129E+00 9.543522901E-05
 9.966270591E-05 2.979094570E-04 2.919936657E+00 9.743943519E-05
 9.700507508E-05 3.008091589E-04 3.029245615E+00 9.948834486E-05
 9.442702139E-05 3.036209382E-04 3.141156435E+00 1.015745074E-04
 9.192596917E-05 3.063464828E-04 3.255704880E+00 1.037016482E-04
 8.949943731E-05 3.089875681E-04 3.372929573E+00 1.058734924E-04
 8.714501746E-05 3.115458239E-04 3.492868423E+00 1.080863149E-04
 8.486038860E-05 3.140230256E-04 3.615560293E+00 1.103438408E-04
 8.264330245E-05 3.164208902E-04 3.741044998E+00 1.126460702E-04
 8.049158350E-05 3.187410475E-04 3.869361877E+00 1.149930031E-04
 7.840312173E-05 3.209852730E-04 4.000552177E+00 1.173883647E-04
 7.637587260E-05 3.231551673E-04 4.134655952E+00 1.198321552E-04
 7.440788613E-05 3.252523602E-04 4.271716595E+00 1.223243744E-04
 7.249724149E-05 3.272784525E-04 4.411774635E+00 1.248650224E-04
 7.064209058E-05 3.292350157E-04 4.554872990E+00 1.274578244E-04
 6.884067261E-05 3.311236214E-04 4.701055527E+00 1.300990552E-04
 6.709124136E-05 3.329456958E-04 4.850364685E+00 1.327961654E-04
 6.539214519E-05 3.347027814E-04 5.002845287E+00 1.355491549E-04
 6.374176883E-05 3.363962751E-04 5.158541203E+00 1.383542985E-04
 6.213856250E-05 3.380275157E-04 5.317498207E+00 1.412153215E-04
 6.058100553E-05 3.395979293E-04 5.479759693E+00 1.441359491E-04
 5.906766455E-05 3.411087382E-04 5.645373344E+00 1.471124560E-04
 5.759712440E-05 3.425612231E-04 5.814383507E+00 1.501522929E-04
 5.616802810E-05 3.439566353E-04 5.986837864E+00 1.532517344E-04
 5.477905870E-05 3.452961391E-04 6.162781715E+00 1.564107806E-04
 5.342896111E-05 3.465808695E-04 6.342262268E+00 1.596368820E-04
 5.211649841E-05 3.478118742E-04 6.525326252E+00 1.629263134E-04
 5.084049917E-05 3.489902883E-04 6.712022781E+00 1.662827999E-04
 4.959980288E-05 3.501170722E-04 6.902397633E+00 1.697063417E-04
 4.839331814E-05 3.511932155E-04 7.096499443E+00 1.732006640E-04
 4.721997175E-05 3.522196494E-04 7.294376373E+00 1.767620415E-04
 4.607873052E-05 3.531972470E-04 7.496076584E+00 1.803979249E-04
 4.496860129E-05 3.541268816E-04 7.701647758E+00 1.841083140E-04
 4.388861271E-05 3.550093679E-04 7.911138535E+00 1.878932089E-04
 4.283784438E-05 3.558454919E-04 8.124598503E+00 1.917526097E-04
 4.181539043E-05 3.566360101E-04 8.342074394E+00 1.956902415E-04
 4.082038140E-05 3.573815920E-04 8.563616753E+00 1.997061045E-04
 3.985197327E-05 3.580829070E-04 8.789272308E+00 2.038076491E-04
 3.890935841E-05 3.587406245E-04 9.019090652E+00 2.079874248E-04
 3.799175101E-05 3.593553265E-04 9.253120422E+00 2.122528822E-04
 3.709838711E-05 3.599275951E-04 9.491408348E+00 2.166077466E-04
 3.622853910E-05 3.604579833E-04 9.734004974E+00 2.210482926E-04
 3.538149394E-05 3.609469277E-04 9.980957985E+00 2.255782456E-04
 3.455656770E-05 3.613949812E-04 1.023231316E+01 2.302013309E-04
 3.375309461E-05 3.618025512E-04 1.048812103E+01 2.349175484E-04
 3.297043077E-05 3.621700744E-04 1.074842644E+01 2.397268981E-04
 3.220796134E-05 3.624978999E-04 1.101327896E+01 2.446368453E-04
 3.146508243E-05 3.627864353E-04 1.128272343E+01 2.496473608E-04
 3.074121560E-05 3.630359715E-04 1.155680656E+01 2.547584591E-04
 3.003580059E-05 3.632467997E-04 1.183557606E+01 2.599701402E-04
 2.934828808E-05 3.634192690E-04 1.211907578E+01 2.652898547E-04
 2.867815783E-05 3.635535541E-04 1.240735054E+01 2.707176027E-04
 2.802489871E-05 3.636499168E-04 1.270044708E+01 2.762533841E-04
 2.738802141E-05 3.637085611E-04 1.299840736E+01 2.819046495E-04
 2.676704571E-05 3.637296904E-04 1.330127525E+01 2.876713988E-04
 2.616151141E-05 3.637133923E-04 1.360909462E+01 2.935499069E-04
 2.557097469E-05 3.636598703E-04 1.392190647E+01 2.995513496E-04
 2.499499897E-05 3.635691828E-04 1.423975277E+01 3.056757268E-04
 2.443316953E-05 3.634414752E-04 1.456267262E+01 3.119230387E-04
 2.388507892E-05 3.632767766E-04 1.489070797E+01 3.182970104E-04
 2.335033605E-05 3.630751744E-04 1.522389603E+01 3.248013672E-04
 2.282856076E-05 3.628366685E-04 1.556227684E+01 3.314361093E-04
 2.231938197E-05 3.625612881E-04 1.590588474E+01 3.382086870E-04
 2.182244680E-05 3.622490331E-04 1.625476074E+01 3.451153752E-04
 2.133740600E-05 3.618998744E-04 1.660893250E+01 3.521636245E-04
 2.086392851E-05 3.615137248E-04 1.696844292E+01 3.593571601E-04
 2.040168692E-05 3.610906424E-04 1.733332062E+01 3.666922566E-04
 1.995037019E-05 3.606304526E-04 1.770359612E+01 3.741800901E-04
 1.950966907E-05 3.601331555E-04 1.807930183E+01 3.818206606E-04
 1.907928890E-05 3.595985763E-04 1.846046829E+01 3.896139679E-04
 1.865894410E-05 3.590266278E-04 1.884712410E+01 3.975674626E-04
 1.824835999E-05 3.584171645E-04 1.923929405E+01 4.056811449E-04
 1.784726010E-05 3.577701282E-04 1.963700676E+01 4.139624652E-04
 1.745538793E-05 3.570852277E-04 2.004028511E+01 4.224114236E-04
 1.707249066E-05 3.563624341E-04 2.044915199E+01 4.310317454E-04
 1.669832091E-05 3.556015145E-04 2.086363411E+01 4.398271558E-04
 1.633264219E-05 3.548022651E-04 2.128374481E+01 4.488013801E-04
 1.597521987E-05 3.539645404E-04 2.170950699E+01 4.579581437E-04
 1.562583202E-05 3.530880786E-04 2.214093781E+01 4.673011717E-04
 1.528426219E-05 3.521727631E-04 2.257805443E+01 4.768341896E-04
 1.495029483E-05 3.512182739E-04 2.302087021E+01 4.865609226E-04
 1.462372893E-05 3.502244654E-04 2.346939850E+01 4.964850959E-04
 1.430436441E-05 3.491910757E-04 2.392365265E+01 5.066141603E-04
 1.399200846E-05 3.481179010E-04 2.438364220E+01 5.169443903E-04
 1.368647372E-05 3.470046795E-04 2.484937477E+01 5.274906871E-04
 1.338757738E-05 3.458512074E-04 2.532086182E+01 5.382456002E-04
 1.309514482E-05 3.446572227E-04 2.579810524E+01 5.492240307E-04
 1.280900415E-05 3.434224927E-04 2.628111267E+01 5.604222533E-04
 1.252898892E-05 3.421467554E-04 2.676988602E+01 5.718514440E-04
 1.225493725E-05 3.408298362E-04 2.726442528E+01 5.835116026E-04
 1.198669270E-05 3.394714440E-04 2.776473427E+01 5.954101798E-04
 1.172410521E-05 3.380714043E-04 2.827081299E+01 6.075509009E-04
 1.146702562E-05 3.366294259E-04 2.878265762E+01 6.199412164E-04
 1.121531022E-05 3.351453634E-04 2.930026245E+01 6.325774011E-04
 1.096882079E-05 3.336189548E-04 2.982362747E+01 6.454743561E-04
 1.072742361E-05 3.320500255E-04 3.035274696E+01 6.586358068E-04
 1.049098591E-05 3.304384009E-04 3.088761520E+01 6.720617530E-04
 1.025938127E-05 3.287839063E-04 3.142822266E+01 6.857633707E-04
 1.003248872E-05 3.270863672E-04 3.197456169E+01 6.997443852E-04
 9.810187294E-06 3.253456089E-04 3.252662659E+01 7.140085218E-04
 9.592359675E-06 3.235615732E-04 3.308440399E+01 7.285632310E-04
 9.378895811E-06 3.217340854E-04 3.364789200E+01 7.434159634E-04
 9.169686564E-06 3.198630875E-04 3.421706772E+01 7.585667190E-04
 8.964625522E-06 3.179485211E-04 3.479193497E+01 7.740303990E-04
 8.763611731E-06 3.159903572E-04 3.537247467E+01 7.898070035E-04
 8.566545148E-06 3.139885375E-04 3.595867920E+01 8.059077081E-04
 8.373330274E-06 3.119431203E-04 3.655053329E+01 8.223325131E-04
 8.183875252E-06 3.098541056E-04 3.714804077E+01 8.390925941E-04
 7.998089131E-06 3.077216097E-04 3.775117874E+01 8.561954019E-04
 7.815885510E-06 3.055457782E-04 3.835994720E+01 8.736446616E-04
 7.637180715E-06 3.033266985E-04 3.897433472E+01 8.914515493E-04
 7.461893347E-06 3.010645742E-04 3.959433746E+01 9.096197900E-04
 7.289945643E-06 2.987596963E-04 4.021994781E+01 9.281568346E-04
 7.121262570E-06 2.964122395E-04 4.085116577E+01 9.470738587E-04
 6.955770459E-06 2.940226696E-04 4.148798752E+01 9.663745877E-04
 6.793399280E-06 2.915912191E-04 4.213041687E+01 9.860664140E-04
 6.634082183E-06 2.891184122E-04 4.277844620E+01 1.006164355E-03
 6.477753232E-06 2.866047143E-04 4.343208694E+01 1.026668353E-03
 6.324350579E-06 2.840506204E-04 4.409134674E+01 1.047589583E-03
 6.173814199E-06 2.814567415E-04 4.475623322E+01 1.068939222E-03
 6.026086794E-06 2.788238053E-04 4.542676163E+01 1.090720994E-03
 5.881112884E-06 2.761524229E-04 4.610294342E+01 1.112946076E-03
 5.738840173E-06 2.734434383E-04 4.678479767E+01 1.135625644E-03
 5.599217729E-06 2.706976957E-04 4.747234344E+01 1.158767147E-03
 5.462197805E-06 2.679161553E-04 4.816561127E+01 1.182381762E-03
 5.327734925E-06 2.650997776E-04 4.886462402E+01 1.206473215E-03
 5.195784979E-06 2.622496395E-04 4.956941986E+01 1.231060131E-03
 5.066306585E-06 2.593668469E-04 5.028002167E+01 1.256146235E-03
 4.939260634E-06 2.564527094E-04 5.099647522E+01 1.281738980E-03
 4.814609383E-06 2.535084495E-04 5.171881866E+01 1.307856990E-03
 4.692318271E-06 2.505354933E-04 5.244709778E+01 1.334507717E-03
 4.572353646E-06 2.475352085E-04 5.318135452E+01 1.361698611E-03
 4.454684586E-06 2.445092541E-04 5.392164230E+01 1.389444573E-03
 4.339281986E-06 2.414591290E-04 5.466799927E+01 1.417756779E-03
 4.226117653E-06 2.383865940E-04 5.542048264E+01 1.446646405E-03
 4.115165666E-06 2.352933952E-04 5.617914581E+01 1.476120902E-03
 4.006403287E-06 2.321813517E-04 5.694402695E+01 1.506198896E-03
 3.899806416E-06 2.290524280E-04 5.771518326E+01 1.536887838E-03
 3.795355269E-06 2.259085450E-04 5.849264908E+01 1.568202628E-03
 3.693029839E-06 2.227518125E-04 5.927647018E+01 1.600158168E-03
 3.592812163E-06 2.195843117E-04 6.006666946E+01 1.632761909E-03
 3.494685188E-06 2.164082398E-04 6.086327744E+01 1.666028751E-03
 3.398633680E-06 2.132258232E-04 6.166630936E+01 1.699973596E-03
 3.304643087E-06 2.100393467E-04 6.247575760E+01 1.734611345E-03
 3.212699767E-06 2.068511239E-04 6.329160690E+01 1.769953175E-03
 3.122790986E-06 2.036635415E-04 6.411381531E+01 1.806017710E-03
 3.034904921E-06 2.004789712E-04 6.494233704E+01 1.842812402E-03
 2.949030431E-06 1.972998289E-04 6.577707672E+01 1.880359603E-03
 2.865156603E-06 1.941285591E-04 6.661793518E+01 1.918670489E-03
 2.783272976E-06 1.909675775E-04 6.746472931E+01 1.957763685E-03
 2.703369546E-06 1.878192998E-04 6.831729889E+01 1.997654093E-03
 2.625436309E-06 1.846861560E-04 6.917538452E+01 2.038352890E-03
 2.549463488E-06 1.815705036E-04 7.003871155E+01 2.079882426E-03
 2.475440851E-06 1.784747001E-04 7.090692139E+01 2.122261329E-03
 2.403357939E-06 1.754010445E-04 7.177959442E+01 2.165500773E-03
 2.333203838E-06 1.723517635E-04 7.265625763E+01 2.209619386E-03
 2.264968089E-06 1.693290105E-04 7.353633881E+01 2.254639519E-03
 2.198638185E-06 1.663348667E-04 7.441919708E+01 2.300576074E-03
 2.134201850E-06 1.633713255E-04 7.530406189E+01 2.347447677E-03
 2.071645440E-06 1.604402496E-04 7.619009399E+01 2.395272953E-03
 2.010954631E-06 1.575433707E-04 7.707631683E+01 2.444074256E-03
 1.952113507E-06 1.546823041E-04 7.796166229E+01 2.493870212E-03
 1.895105584E-06 1.518585195E-04 7.884489441E+01 2.544683171E-03
 1.839912898E-06 1.490732830E-04 7.972466278E+01 2.596528037E-03
 1.786516236E-06 1.463277731E-04 8.059946442E+01 2.649427159E-03
 1.734894795E-06 1.436229068E-04 8.146763611E+01 2.703406615E-03
 1.685026859E-06 1.409594988E-04 8.232733917E+01 2.758485032E-03
 1.636889351E-06 1.383381168E-04 8.317658234E+01 2.814684762E-03
 1.590457828E-06 1.357591682E-04 8.401318359E+01 2.872031881E-03
 1.545706596E-06 1.332228421E-04 8.483477020E+01 2.930545015E-03
 1.502608598E-06 1.307291386E-04 8.563880157E+01 2.990250243E-03
 1.461135525E-06 1.282778539E-04 8.642251587E+01 3.051173640E-03
 1.421258048E-06 1.258685515E-04 8.718296051E+01 3.113337560E-03
 1.382945129E-06 1.235005911E-04 8.791702271E+01 3.176768078E-03
 1.346164936E-06 1.211730996E-04 8.862134552E+01 3.241487546E-03
 1.310884386E-06 1.188850001E-04 8.929241180E+01 3.307529492E-03
 1.277069487E-06 1.166349903E-04 8.992649841E+01 3.374916269E-03
 1.244685336E-06 1.144215494E-04 9.051967621E+01 3.443673952E-03
 1.213695896E-06 1.122429385E-04 9.106790161E+01 3.513832344E-03
 1.184064558E-06 1.100972077E-04 9.156688690E+01 3.585421247E-03
 1.155754376E-06 1.079821886E-04 9.201222229E+01 3.658470465E-03
 1.128727376E-06 1.058955168E-04 9.239935303E+01 3.733006073E-03
 1.102945134E-06 1.038346018E-04 9.272355652E+01 3.809057875E-03
 1.078369110E-06 1.017966715E-04 9.298002625E+01 3.886663122E-03
 1.054959966E-06 9.977875015E-05 9.316380310E+01 3.965848126E-03
 1.032678483E-06 9.777764353E-05 9.326985168E+01 4.046645947E-03
 1.011484983E-06 9.578997560E-05 9.329305267E+01 4.129090346E-03
 9.913395616E-07 9.381216660E-05 9.322821045E+01 4.213211127E-03
 9.722022014E-07 9.184044029E-05 9.307009125E+01 4.299049266E-03
 9.540324299E-07 8.987085312E-05 9.281340790E+01 4.386634566E-03
 9.367900020E-07 8.789919957E-05 9.245281982E+01 4.476004280E-03
 9.204339904E-07 8.592114318E-05 9.198299408E+01 4.567195661E-03
 9.049233540E-07 8.393210010E-05 9.139854431E+01 4.660245962E-03
 8.902166542E-07 8.192729001E-05 9.069409943E+01 4.755188711E-03
 8.762717698E-07 7.990171434E-05 8.986422729E+01 4.852068610E-03
 8.630461252E-07 7.785015623E-05 8.890347290E+01 4.950919189E-03
 8.504960078E-07 7.576717326E-05 8.780637360E+01 5.051785149E-03
 8.385769661E-07 7.364710473E-05 8.656738281E+01 5.154707469E-03
 8.272431842E-07 7.148409350E-05 8.518095398E+01 5.259723403E-03
 8.164474252E-07 6.927215873E-05 8.364151001E+01 5.366881378E-03
 8.061408607E-07 6.700533413E-05 8.194363403E+01 5.476222374E-03
 7.962733548E-07 6.467794447E-05 8.008234406E+01 5.587791093E-03
 7.867935210E-07 6.228515122E-05 7.805358887E+01 5.701632239E-03
 7.776490065E-07 5.982368020E-05 7.585523224E+01 5.817790516E-03
 7.687877428E-07 5.729308032E-05 7.348847198E+01 5.936318077E-03
 7.601582297E-07 5.469699681E-05 7.095956421E+01 6.057259627E-03
 7.517099334E-07 5.204432819E-05 6.828152466E+01 6.180663593E-03
 7.433921496E-07 4.934937533E-05 6.547461700E+01 6.306582130E-03
 7.351516160E-07 4.663021537E-05 6.256473160E+01 6.435067393E-03
 7.269279649E-07 4.390535469E-05 5.957932281E+01 6.566171534E-03
 7.186501421E-07 4.118981815E-05 5.654220963E+01 6.699942984E-03
 7.102321433E-07 3.849230779E-05 5.346944427E+01 6.836441346E-03
 7.016198538E-07 3.583270154E-05 5.038971710E+01 6.975722499E-03
 6.928210041E-07 3.324980207E-05 4.735489655E+01 7.117838599E-03
 6.837839237E-07 3.075217319E-05 4.437996674E+01 7.262852974E-03
 6.743820222E-07 2.831779420E-05 4.143973541E+01 7.410817780E-03
 6.644402220E-07 2.591844896E-05 3.849908066E+01 7.561800070E-03
 6.537013064E-07 2.351975127E-05 3.551275635E+01 7.715855725E-03
 6.418286489E-07 2.109321031E-05 3.244054031E+01 7.873051800E-03
 6.284074630E-07 1.862580757E-05 2.925977135E+01 8.033451624E-03
 6.129150734E-07 1.612248161E-05 2.596928024E+01 8.197114803E-03
 5.946463943E-07 1.360394072E-05 2.258718681E+01 8.364115842E-03
 5.725908636E-07 1.110516405E-05 1.914955330E+01 8.534518071E-03
 5.452358209E-07 8.676699508E-06 1.571296978E+01 8.708392270E-03
 5.102544378E-07 6.388052043E-06 1.236107254E+01 8.885809220E-03
 4.640681368E-07 4.330864158E-06 9.213071823E+00 9.066839702E-03
 4.016530966E-07 2.615757921E-06 6.426792145E+00 9.251561947E-03
 3.186602271E-07 1.348346245E-06 4.172263622E+00 9.440043010E-03
 2.200947051E-07 5.687419389E-07 2.544401407E+00 9.632364847E-03
 1.282229221E-07 1.920362109E-07 1.471495390E+00 9.828605689E-03
 6.711855605E-08 5.080722687E-08 7.412581444E-01 1.002884377E-02
 4.095094042E-08 1.015414330E-08 2.426117063E-01 1.023316104E-02
 3.414481853E-08 1.703537200E-09 4.903856292E-02 1.044164319E-02
 3.279203042E-08 3.206165333E-10 9.636777453E-03 1.065436844E-02
 3.247009772E-08 1.225563262E-10 3.726191586E-03 1.087143365E-02
 3.223949463E-08 9.614788826E-11 2.945985412E-03 1.109291706E-02
 3.193973086E-08 9.248192490E-11 2.860634821E-03 1.131891180E-02
 3.163121676E-08 9.162764991E-11 2.861981979E-03 1.154951099E-02
 3.133073534E-08 9.110805166E-11 2.873140387E-03 1.178481150E-02
 3.104052837E-08 9.063622075E-11 2.885076683E-03 1.202490274E-02
 3.076059585E-08 9.018147340E-11 2.896819497E-03 1.226988528E-02
 3.049055763E-08 8.974103405E-11 2.908297814E-03 1.251986343E-02
 3.022995188E-08 8.931482637E-11 2.919536317E-03 1.277492661E-02
 2.997822435E-08 8.890285730E-11 2.930572024E-03 1.303519029E-02
 2.973481017E-08 8.850505051E-11 2.941443585E-03 1.330075879E-02
 2.949910893E-08 8.812119784E-11 2.952190582E-03 1.357173640E-02
 2.927051668E-08 8.775095234E-11 2.962851664E-03 1.384823490E-02
 2.904842766E-08 8.739391849E-11 2.973464550E-03 1.413035858E-02
 2.883224148E-08 8.704956200E-11 2.984065330E-03 1.441824157E-02
 2.862137372E-08 8.671729307E-11 2.994687762E-03 1.471198071E-02
 2.841525770E-08 8.639643168E-11 3.005363280E-03 1.501171011E-02
 2.821334100E-08 8.608624924E-11 3.016120754E-03 1.531754155E-02
 2.801509957E-08 8.578595473E-11 3.026986262E-03 1.562960818E-02
 2.782002895E-08 8.549473629E-11 3.037983552E-03 1.594803110E-02
 2.762765661E-08 8.521176126E-11 3.049134044E-03 1.627293602E-02
 2.743753669E-08 8.493616227E-11 3.060457064E-03 1.660446450E-02
 2.724925174E-08 8.466712748E-11 3.071970306E-03 1.694275066E-02
 2.706241453E-08 8.440385196E-11 3.083689604E-03 1.728792116E-02
 2.687667333E-08 8.414553776E-11 3.095629625E-03 1.764013246E-02
 2.669170485E-08 8.389148404E-11 3.107804572E-03 1.799951121E-02
 2.650721953E-08 8.364099691E-11 3.120227018E-03 1.836621389E-02
 2.632295626E-08 8.339347268E-11 3.132909536E-03 1.874038950E-02
 2.613868588E-08 8.314834932E-11 3.145864001E-03 1.912218705E-02
 2.595420234E-08 8.290512027E-11 3.159101354E-03 1.951176301E-02
 2.576933156E-08 8.266334145E-11 3.172632772E-03 1.990927383E-02
 2.558392254E-08 8.242261734E-11 3.186468733E-03 2.031489089E-02
 2.539784738E-08 8.218260794E-11 3.200619714E-03 2.072876319E-02
 2.521099418E-08 8.194301487E-11 3.215096425E-03 2.115106955E-02
 2.502327412E-08 8.170358834E-11 3.229909111E-03 2.158198133E-02
 2.483461436E-08 8.146411323E-11 3.245067317E-03 2.202166989E-02
 2.464495452E-08 8.122440914E-11 3.260581987E-03 2.247032151E-02
 2.445425373E-08 8.098433035E-11 3.276463132E-03 2.292810753E-02
 2.426247470E-08 8.074373808E-11 3.292720765E-03 2.339522168E-02
 2.406959432E-08 8.050254907E-11 3.309365129E-03 2.387185022E-02
 2.387560194E-08 8.026068005E-11 3.326406237E-03 2.435819432E-02
 2.368048690E-08 8.001806856E-11 3.343855264E-03 2.485444024E-02
 2.348425454E-08 7.977465216E-11 3.361721523E-03 2.536079660E-02
 2.328691373E-08 7.953041004E-11 3.380015725E-03 2.587747201E-02
 2.308847868E-08 7.928531442E-11 3.398748348E-03 2.640467510E-02
 2.288896717E-08 7.903934451E-11 3.417929867E-03 2.694261447E-02
 2.268840404E-08 7.879249336E-11 3.437570995E-03 2.749152109E-02
 2.248681952E-08 7.854478179E-11 3.457681974E-03 2.805160359E-02
 2.228424734E-08 7.829620285E-11 3.478274215E-03 2.862310037E-02
 2.208072125E-08 7.804677044E-11 3.499357728E-03 2.920623496E-02
 2.187628390E-08 7.779650535E-11 3.520943923E-03 2.980125323E-02
 2.167097612E-08 7.754542841E-11 3.543043742E-03 3.040839359E-02
 2.146484590E-08 7.729357432E-11 3.565667663E-03 3.102790192E-02
 2.125793941E-08 7.704096389E-11 3.588827094E-03 3.166003153E-02
 2.105030994E-08 7.678763875E-11 3.612533445E-03 3.230504319E-02
 2.084201078E-08 7.653362666E-11 3.636797424E-03 3.296319768E-02
 2.063309879E-08 7.627896925E-11 3.661630210E-03 3.363475576E-02
 2.042362723E-08 7.602370816E-11 3.687042976E-03 3.431999311E-02
 2.021366008E-08 7.576788502E-11 3.713046666E-03 3.501919284E-02
 2.000325772E-08 7.551153453E-11 3.739652457E-03 3.573263809E-02
 1.979248587E-08 7.525470525E-11 3.766871523E-03 3.646061942E-02
 1.958140494E-08 7.499744575E-11 3.794714576E-03 3.720342740E-02
 1.937008776E-08 7.473980462E-11 3.823192557E-03 3.796137497E-02
 1.915859826E-08 7.448181655E-11 3.852315946E-03 3.873476014E-02
 1.894700752E-08 7.422352316E-11 3.882095683E-03 3.952390328E-02
 1.873538658E-08 7.396499385E-11 3.912541550E-03 4.032912478E-02
 1.852381004E-08 7.370626331E-11 3.943664022E-03 4.115074500E-02
 1.831234542E-08 7.344738012E-11 3.975472413E-03 4.198911414E-02
 1.810107264E-08 7.318838591E-11 4.007976968E-03 4.284455255E-02
 1.789006454E-08 7.292933618E-11 4.041186068E-03 4.371742532E-02
 1.767940105E-08 7.267026564E-11 4.075108562E-03 4.460808262E-02
 1.746915501E-08 7.241123673E-11 4.109752830E-03 4.551688209E-02
 1.725940635E-08 7.215228415E-11 4.145125858E-03 4.644419625E-02
 1.705023145E-08 7.189345647E-11 4.181235563E-03 4.739039764E-02
 1.684171380E-08 7.163478144E-11 4.218087997E-03 4.835588112E-02
 1.663392801E-08 7.137632846E-11 4.255689215E-03 4.934104159E-02
 1.642695757E-08 7.111811834E-11 4.294044338E-03 5.034625903E-02
 1.622087886E-08 7.086019965E-11 4.333156161E-03 5.137196556E-02
 1.601577182E-08 7.060260016E-11 4.373029340E-03 5.241856351E-02
 1.581171993E-08 7.034537536E-11 4.413665738E-03 5.348648503E-02
 1.560880314E-08 7.008855302E-11 4.455066752E-03 5.457616970E-02
 1.540709604E-08 6.983216089E-11 4.497231450E-03 5.568804219E-02
 1.520668036E-08 6.957623366E-11 4.540159833E-03 5.682257935E-02
 1.500763425E-08 6.932080604E-11 4.583847709E-03 5.798022076E-02
 1.481003586E-08 6.906590577E-11 4.628291819E-03 5.916145071E-02
 1.461396337E-08 6.881155368E-11 4.673486575E-03 6.036674604E-02
 1.441949227E-08 6.855777057E-11 4.719424993E-03 6.159659848E-02
 1.422669893E-08 6.830459115E-11 4.766097758E-03 6.285150349E-02
 1.403565530E-08 6.805200847E-11 4.813494161E-03 6.413198262E-02
 1.384643689E-08 6.780005724E-11 4.861601163E-03 6.543853879E-02
 1.365911562E-08 6.754873744E-11 4.910404328E-03 6.677171588E-02
 1.347375989E-08 6.729806296E-11 4.959886428E-03 6.813205779E-02
 1.329043986E-08 6.704802685E-11 5.010027438E-03 6.952010840E-02
 1.310922126E-08 6.679864994E-11 5.060807336E-03 7.093644142E-02
 1.293017160E-08 6.654990448E-11 5.112200510E-03 7.238162309E-02
 1.275335304E-08 6.630180432E-11 5.164181348E-03 7.385625690E-02
 1.257882509E-08 6.605432173E-11 5.216720048E-03 7.536092401E-02
 1.240664993E-08 6.580744977E-11 5.269784480E-03 7.689625025E-02
 1.223688351E-08 6.556116761E-11 5.323339719E-03 7.846285403E-02
 1.206958000E-08 6.531545443E-11 5.377348512E-03 8.006137609E-02
 1.190479182E-08 6.507027556E-11 5.431768950E-03 8.169247210E-02
 1.174256781E-08 6.482558934E-11 5.486558191E-03 8.335678279E-02
 1.158295682E-08 6.458136803E-11 5.541668739E-03 8.505500853E-02
 1.142600237E-08 6.433756999E-11 5.597050767E-03 8.678783476E-02
 1.127174531E-08 6.409412584E-11 5.652650259E-03 8.855596185E-02
 1.112022563E-08 6.385099394E-11 5.708411336E-03 9.036011994E-02
 1.097147884E-08 6.360809796E-11 5.764273461E-03 9.220102429E-02
 1.082553780E-08 6.336537545E-11 5.820174702E-03 9.407941997E-02
 1.068243183E-08 6.312274314E-11 5.876048468E-03 9.599609673E-02
 1.054218757E-08 6.288013166E-11 5.931824911E-03 9.795182943E-02
 1.040483077E-08 6.263745772E-11 5.987433251E-03 9.994740784E-02
 1.027038099E-08 6.239460337E-11 6.042798050E-03 1.019836217E-01
 1.013885420E-08 6.215148535E-11 6.097840611E-03 1.040613353E-01
 1.001026639E-08 6.190797874E-11 6.152479909E-03 1.061813831E-01
 9.884629115E-09 6.166397254E-11 6.206631660E-03 1.083445996E-01
 9.761948583E-09 6.141930714E-11 6.260209251E-03 1.105519086E-01
 9.642231014E-09 6.117385765E-11 6.313123275E-03 1.128041744E-01
 9.525476408E-09 6.092746446E-11 6.365281995E-03 1.151023358E-01
 9.411684765E-09 6.067996106E-11 6.416591350E-03 1.174473166E-01
 9.300850756E-09 6.043117395E-11 6.466954947E-03 1.198400706E-01
 9.192966388E-09 6.018090887E-11 6.516275462E-03 1.222815663E-01
 9.088021891E-09 5.992897845E-11 6.564454641E-03 1.247728020E-01
 8.986003941E-09 5.967516065E-11 6.611389574E-03 1.273147911E-01