# mean flow u results for BSL model at x=0.75 
VARIABLES = "u" "y-0.05"
ZONE T="CFL3D"
 2.255802974E-03 7.450580708E-10
 4.535544664E-03 4.962086564E-07
 9.072959423E-03 9.916723229E-07
 1.361409016E-02 1.487135933E-06
 1.816078648E-02 1.982599542E-06
 2.271489426E-02 2.478063152E-06
 2.727827244E-02 2.977252052E-06
 3.185277432E-02 3.476440952E-06
 3.644025698E-02 3.975629625E-06
 4.104258493E-02 4.478543815E-06
 4.566162080E-02 4.981458005E-06
 5.029924214E-02 5.488097486E-06
 5.495732278E-02 5.998462257E-06
 5.963773280E-02 6.508827028E-06
 6.434235722E-02 7.022917089E-06
 6.907308102E-02 7.537007150E-06
 7.383177429E-02 8.058547792E-06
 7.862032950E-02 8.580088434E-06
 8.344062418E-02 9.105354366E-06
 8.829452097E-02 9.638070878E-06
 9.318389744E-02 1.017078739E-05
 9.811058640E-02 1.070722919E-05
 1.030764580E-01 1.125112158E-05
 1.080832779E-01 1.179873925E-05
 1.131328866E-01 1.235008222E-05
 1.182270348E-01 1.290515047E-05
 1.233674213E-01 1.346766931E-05
 1.285557300E-01 1.403391343E-05
 1.337935925E-01 1.460760814E-05
 1.390825361E-01 1.518502813E-05
 1.444240659E-01 1.576989962E-05
 1.498195380E-01 1.636222078E-05
 1.552702338E-01 1.696199251E-05
 1.607773453E-01 1.756548954E-05
 1.663418710E-01 1.818016244E-05
 1.719647050E-01 1.879856063E-05
 1.776465476E-01 1.942440940E-05
 1.833878756E-01 2.006143404E-05
 1.891890913E-01 2.070590926E-05
 1.950502098E-01 2.135783507E-05
 2.009710968E-01 2.201721145E-05
 2.069513351E-01 2.268776370E-05
 2.129902095E-01 2.336576654E-05
 2.190867215E-01 2.405494524E-05
 2.252396047E-01 2.475157453E-05
 2.314471900E-01 2.545937969E-05
 2.377075255E-01 2.617836071E-05
 2.440183461E-01 2.690851761E-05
 2.503770590E-01 2.764612509E-05
 2.567807138E-01 2.839863373E-05
 2.632260919E-01 2.916231824E-05
 2.697096467E-01 2.993717862E-05
 2.762276232E-01 3.072321488E-05
 2.827759385E-01 3.152042700E-05
 2.893503308E-01 3.233254029E-05
 2.959463894E-01 3.315955473E-05
 3.025595546E-01 3.399774505E-05
 3.091851771E-01 3.485083653E-05
 3.158184588E-01 3.571882917E-05
 3.224547505E-01 3.659799768E-05
 3.290893137E-01 3.749579264E-05
 3.357174695E-01 3.840848876E-05
 3.423347771E-01 3.933236076E-05
 3.489367962E-01 4.027858449E-05
 3.555193841E-01 4.123598410E-05
 3.620784283E-01 4.221201016E-05
 3.686102033E-01 4.320666267E-05
 3.751111627E-01 4.421621634E-05
 3.815780580E-01 4.524812175E-05
 3.880077600E-01 4.629492832E-05
 3.943975568E-01 4.736036135E-05
 4.007450044E-01 4.844442083E-05
 4.070478380E-01 4.955083205E-05
 4.133041203E-01 5.067586972E-05
 4.195121229E-01 5.182325913E-05
 4.256703854E-01 5.298927499E-05
 4.317776859E-01 5.417764260E-05
 4.378330708E-01 5.538836194E-05
 4.438355863E-01 5.662143303E-05
 4.497848451E-01 5.787685586E-05
 4.556802511E-01 5.915835573E-05
 4.615215659E-01 6.046220733E-05
 4.673087895E-01 6.178840704E-05
 4.730418026E-01 6.314441271E-05
 4.787207842E-01 6.452277012E-05
 4.843460321E-01 6.592720456E-05
 4.899179339E-01 6.736144132E-05
 4.954368174E-01 6.882175512E-05
 5.009033680E-01 7.030814595E-05
 5.063180923E-01 7.182433910E-05
 5.116815567E-01 7.337033458E-05
 5.169946551E-01 7.494613237E-05
 5.222579241E-01 7.655173249E-05
 5.274723768E-01 7.818713493E-05
 5.326386094E-01 7.985606499E-05
 5.377576351E-01 8.155852265E-05
 5.428301692E-01 8.329078264E-05
 5.478572249E-01 8.506029553E-05
 5.528395176E-01 8.686333604E-05
 5.577781200E-01 8.869990415E-05
 5.626738071E-01 9.057745046E-05
 5.675275326E-01 9.248852439E-05
 5.723401308E-01 9.443685121E-05
 5.771125555E-01 9.642243094E-05
 5.818457007E-01 9.844898887E-05
 5.865404010E-01 1.005165250E-04
 5.911975503E-01 1.026250393E-04
 5.958180428E-01 1.047708065E-04
 6.004027128E-01 1.069650025E-04
 6.049523354E-01 1.092001767E-04
 6.094677448E-01 1.114800543E-04
 6.139499545E-01 1.138046355E-04
 6.183994412E-01 1.161739201E-04
 6.228172779E-01 1.185953588E-04
 6.272040606E-01 1.210615010E-04
 6.315606236E-01 1.235760719E-04
 6.358877420E-01 1.261427969E-04
 6.401860714E-01 1.287616760E-04
 6.444563866E-01 1.314289839E-04
 6.486993432E-01 1.341558964E-04
 6.529155970E-01 1.369312376E-04
 6.571059823E-01 1.397661836E-04
 6.612709761E-01 1.426570088E-04
 6.654113531E-01 1.456037135E-04
 6.695275903E-01 1.486137480E-04
 6.736204028E-01 1.516796619E-04
 6.776903868E-01 1.548126311E-04
 6.817381382E-01 1.580052049E-04
 6.857642531E-01 1.612611086E-04
 6.897691488E-01 1.645840675E-04
 6.937534809E-01 1.679740817E-04
 6.977179050E-01 1.714311511E-04
 7.016627789E-01 1.749590010E-04
 7.055886984E-01 1.785576314E-04
 7.094961405E-01 1.822307677E-04
 7.133854628E-01 1.859746844E-04
 7.172573209E-01 1.897968323E-04
 7.211121917E-01 1.936972112E-04
 7.249504924E-01 1.976720960E-04
 7.287725806E-01 2.017326624E-04
 7.325788736E-01 2.058714599E-04
 7.363700271E-01 2.100959391E-04
 7.401461005E-01 2.144023747E-04
 7.439079285E-01 2.188019425E-04
 7.476556301E-01 2.232871921E-04
 7.513895631E-01 2.278618485E-04
 7.551102638E-01 2.325296373E-04
 7.588179111E-01 2.372942836E-04
 7.625131607E-01 2.421557874E-04
 7.661960125E-01 2.471141634E-04
 7.698670626E-01 2.521731076E-04
 7.735265493E-01 2.573326346E-04
 7.771748304E-01 2.626001951E-04
 7.808121443E-01 2.679720637E-04
 7.844389677E-01 2.734556911E-04
 7.880554199E-01 2.790473518E-04
 7.916617990E-01 2.847544965E-04
 7.952586412E-01 2.905771253E-04
 7.988459468E-01 2.965189633E-04
 8.024240732E-01 3.025800106E-04
 8.059933782E-01 3.087639925E-04
 8.095539808E-01 3.150746343E-04
 8.131062984E-01 3.215119359E-04
 8.166505098E-01 3.280796227E-04
 8.201866746E-01 3.347814200E-04
 8.237152696E-01 3.416210529E-04
 8.272364140E-01 3.485985217E-04
 8.307502270E-01 3.557175514E-04
 8.342571259E-01 3.629818675E-04
 8.377571106E-01 3.703951952E-04
 8.412505388E-01 3.779575345E-04
 8.447375894E-01 3.856726107E-04
 8.482182622E-01 3.935478744E-04
 8.516928554E-01 4.015796003E-04
 8.551616073E-01 4.097752389E-04
 8.586245775E-01 4.181385157E-04
 8.620820045E-01 4.266731557E-04
 8.655339479E-01 4.353791592E-04
 8.689805269E-01 4.442639765E-04
 8.724219799E-01 4.533276078E-04
 8.758583665E-01 4.625775036E-04
 8.792898059E-01 4.720136640E-04
 8.827164173E-01 4.816435394E-04
 8.861383200E-01 4.914671299E-04
 8.895555735E-01 5.014918861E-04
 8.929682374E-01 5.117215333E-04
 8.963764906E-01 5.221597967E-04
 8.997803330E-01 5.328104016E-04
 9.031798840E-01 5.436733481E-04
 9.065752029E-01 5.547635374E-04
 9.099661708E-01 5.660772440E-04
 9.133529663E-01 5.776181933E-04
 9.167356491E-01 5.893975613E-04
 9.201140404E-01 6.014153478E-04
 9.234884977E-01 6.136790034E-04
 9.268587828E-01 6.261922535E-04
 9.302248955E-01 6.389588234E-04
 9.335867167E-01 6.519861636E-04
 9.369444847E-01 6.652779994E-04
 9.402979612E-01 6.788380560E-04
 9.436472654E-01 6.926775095E-04
 9.469920993E-01 7.068000850E-04
 9.503326416E-01 7.212057826E-04
 9.536687136E-01 7.359095034E-04
 9.570000172E-01 7.509112475E-04
 9.603268504E-01 7.662147400E-04
 9.636487961E-01 7.818348822E-04
 9.669658542E-01 7.977716741E-04
 9.702778459E-01 8.140288410E-04
 9.735845923E-01 8.306212840E-04
 9.768860340E-01 8.475527284E-04
 9.801819324E-01 8.648268995E-04
 9.834719896E-01 8.824512479E-04
 9.867562056E-01 9.004369495E-04
 9.900342822E-01 9.187877295E-04
 9.933059216E-01 9.375147638E-04
 9.965709448E-01 9.566217777E-04
 9.998291731E-01 9.761162219E-04
 1.003080249E+00 9.960092138E-04
 1.006323814E+00 1.016304595E-03
 1.009559751E+00 1.037017209E-03
 1.012787700E+00 1.058150781E-03
 1.016007185E+00 1.079712762E-03
 1.019218206E+00 1.101718051E-03
 1.022420049E+00 1.124166651E-03
 1.025612473E+00 1.147073461E-03
 1.028795123E+00 1.170449657E-03
 1.031967759E+00 1.194298966E-03
 1.035129786E+00 1.218636287E-03
 1.038280845E+00 1.243469073E-03
 1.041420579E+00 1.268808497E-03
 1.044548392E+00 1.294662012E-03
 1.047663927E+00 1.321040792E-03
 1.050766826E+00 1.347959740E-03
 1.053856492E+00 1.375426305E-03
 1.056932569E+00 1.403451664E-03
 1.059994459E+00 1.432050718E-03
 1.063041687E+00 1.461227192E-03
 1.066073775E+00 1.491003437E-03
 1.069090128E+00 1.521383179E-03
 1.072090507E+00 1.552381320E-03
 1.075074077E+00 1.584012760E-03
 1.078040481E+00 1.616288675E-03
 1.080989242E+00 1.649220241E-03
 1.083919883E+00 1.682822360E-03
 1.086831808E+00 1.717109932E-03
 1.089724422E+00 1.752097858E-03
 1.092597365E+00 1.787797315E-03
 1.095450282E+00 1.824223204E-03
 1.098282456E+00 1.861390425E-03
 1.101093411E+00 1.899313880E-03
 1.103883028E+00 1.938012196E-03
 1.106650591E+00 1.977500273E-03
 1.109395623E+00 2.017789287E-03
 1.112118006E+00 2.058901591E-03
 1.114817142E+00 2.100852085E-03
 1.117493033E+00 2.143655671E-03
 1.120144844E+00 2.187330974E-03
 1.122772813E+00 2.231892897E-03
 1.125376463E+00 2.277367515E-03
 1.127955556E+00 2.323766006E-03
 1.130509973E+00 2.371110721E-03
 1.133039713E+00 2.419420285E-03
 1.135544419E+00 2.468713326E-03
 1.138024330E+00 2.519012196E-03
 1.140479445E+00 2.570335520E-03
 1.142909646E+00 2.622701926E-03
 1.145315170E+00 2.676137490E-03
 1.147696018E+00 2.730660839E-03
 1.150052786E+00 2.786294324E-03
 1.152385354E+00 2.843060298E-03
 1.154694200E+00 2.900984837E-03
 1.156979918E+00 2.960086567E-03
 1.159242511E+00 3.020395292E-03
 1.161482811E+00 3.081933362E-03
 1.163701415E+00 3.144723130E-03
 1.165898800E+00 3.208790673E-03
 1.168075562E+00 3.274165792E-03
 1.170232534E+00 3.340874566E-03
 1.172370553E+00 3.408939345E-03
 1.174490333E+00 3.478389932E-03
 1.176593065E+00 3.549256129E-03
 1.178679228E+00 3.621567739E-03
 1.180750251E+00 3.695350839E-03
 1.182806969E+00 3.770638956E-03
 1.184850693E+00 3.847458167E-03
 1.186882377E+00 3.925845958E-03
 1.188903332E+00 4.005827941E-03
 1.190914869E+00 4.087441601E-03
 1.192918062E+00 4.170713015E-03
 1.194914579E+00 4.255686887E-03
 1.196905732E+00 4.342389293E-03
 1.198892832E+00 4.430857487E-03
 1.200877666E+00 4.521128722E-03
 1.202861667E+00 4.613240249E-03
 1.204846382E+00 4.707225598E-03
 1.206833601E+00 4.803125747E-03
 1.208824992E+00 4.900981672E-03
 1.210822225E+00 5.000830628E-03
 1.212827444E+00 5.102713592E-03
 1.214842319E+00 5.206671543E-03
 1.216868997E+00 5.312749185E-03
 1.218909621E+00 5.420987494E-03
 1.220966101E+00 5.531431176E-03
 1.223041058E+00 5.644121207E-03
 1.225136638E+00 5.759109743E-03
 1.227255344E+00 5.876441486E-03
 1.229399323E+00 5.996164866E-03
 1.231570959E+00 6.118324585E-03
 1.233771801E+00 6.242972799E-03
 1.236003280E+00 6.370161660E-03
 1.238265514E+00 6.499943323E-03
 1.240557194E+00 6.632366218E-03
 1.242876291E+00 6.767489947E-03
 1.245218754E+00 6.905362941E-03
 1.247577906E+00 7.046048529E-03
 1.249944568E+00 7.189598866E-03
 1.252306104E+00 7.336073555E-03
 1.254648924E+00 7.485532202E-03
 1.256958008E+00 7.638034411E-03
 1.259217381E+00 7.793643512E-03
 1.261409998E+00 7.952426560E-03
 1.263514996E+00 8.114439435E-03
 1.265507221E+00 8.279756643E-03
 1.267352343E+00 8.448441513E-03
 1.269004941E+00 8.620561101E-03
 1.270404458E+00 8.796186186E-03
 1.271474123E+00 8.975395001E-03
 1.272126913E+00 9.158250876E-03
 1.272302628E+00 9.344832040E-03
 1.272032499E+00 9.535213001E-03
 1.271476150E+00 9.729475714E-03
 1.270820856E+00 9.927694686E-03
 1.270167947E+00 1.012995187E-02
 1.269546866E+00 1.033632923E-02
 1.268958807E+00 1.054691244E-02
 1.268383980E+00 1.076178346E-02
 1.267805696E+00 1.098103542E-02
 1.267218471E+00 1.120475028E-02
 1.266621232E+00 1.143302489E-02
 1.266013980E+00 1.166595239E-02
 1.265396476E+00 1.190362219E-02
 1.264768600E+00 1.214613486E-02
 1.264129877E+00 1.239358727E-02
 1.263480663E+00 1.264608372E-02
 1.262820482E+00 1.290372480E-02
 1.262149572E+00 1.316661108E-02
 1.261467338E+00 1.343485434E-02
 1.260774016E+00 1.370855886E-02
 1.260069370E+00 1.398784388E-02
 1.259353161E+00 1.427282114E-02
 1.258625269E+00 1.456360240E-02
 1.257885695E+00 1.486030687E-02
 1.257134080E+00 1.516305376E-02
 1.256370544E+00 1.547196973E-02
 1.255594969E+00 1.578718051E-02
 1.254806995E+00 1.610881463E-02
 1.254006624E+00 1.643699780E-02
 1.253193617E+00 1.677187160E-02
 1.252368093E+00 1.711356267E-02
 1.251529694E+00 1.746221259E-02
 1.250678539E+00 1.781797037E-02
 1.249814153E+00 1.818097755E-02
 1.248936772E+00 1.855138317E-02
 1.248046041E+00 1.892932877E-02
 1.247141957E+00 1.931497827E-02
 1.246224403E+00 1.970848069E-02
 1.245293260E+00 2.010999992E-02
 1.244348288E+00 2.051969990E-02
 1.243389606E+00 2.093774453E-02
 1.242416978E+00 2.136431262E-02
 1.241430283E+00 2.179956809E-02
 1.240429640E+00 2.224368975E-02
 1.239414692E+00 2.269686386E-02
 1.238385320E+00 2.315926179E-02
 1.237341762E+00 2.363108471E-02
 1.236283660E+00 2.411251888E-02
 1.235211134E+00 2.460376546E-02
 1.234123945E+00 2.510501817E-02
 1.233022094E+00 2.561648563E-02
 1.231905460E+00 2.613836899E-02
 1.230774164E+00 2.667088434E-02
 1.229627967E+00 2.721424773E-02
 1.228466868E+00 2.776868269E-02
 1.227290869E+00 2.833441272E-02
 1.226099849E+00 2.891167626E-02
 1.224893808E+00 2.950068936E-02
 1.223672867E+00 3.010170534E-02
 1.222436786E+00 3.071497008E-02
 1.221185803E+00 3.134072199E-02
 1.219919682E+00 3.197922930E-02
 1.218638539E+00 3.263073787E-02
 1.217342257E+00 3.329552338E-02
 1.216031075E+00 3.397385404E-02
 1.214704752E+00 3.466600552E-02
 1.213363528E+00 3.537225351E-02
 1.212007523E+00 3.609288856E-02
 1.210636497E+00 3.682820871E-02
 1.209250689E+00 3.757851198E-02
 1.207850099E+00 3.834409639E-02
 1.206434846E+00 3.912528232E-02
 1.205005169E+00 3.992238268E-02
 1.203560710E+00 4.073571786E-02
 1.202102065E+00 4.156563058E-02
 1.200629115E+00 4.241244122E-02
 1.199141979E+00 4.327650741E-02
 1.197640657E+00 4.415817931E-02
 1.196125627E+00 4.505781457E-02
 1.194596648E+00 4.597577825E-02
 1.193054199E+00 4.691244289E-02
 1.191498280E+00 4.786818847E-02
 1.189929128E+00 4.884340242E-02
 1.188346982E+00 4.983849451E-02
 1.186752081E+00 5.085385218E-02
 1.185144305E+00 5.188989267E-02
 1.183524251E+00 5.294704810E-02
 1.181892037E+00 5.402573571E-02
 1.180247784E+00 5.512640253E-02
 1.178591967E+00 5.624948815E-02
 1.176924586E+00 5.739546195E-02
 1.175246239E+00 5.856477842E-02
 1.173556924E+00 5.975791439E-02
 1.171857119E+00 6.097536162E-02
 1.170147061E+00 6.221761182E-02
 1.168427229E+00 6.348517537E-02
 1.166697502E+00 6.477855146E-02
 1.164958715E+00 6.609828770E-02
 1.163211107E+00 6.744490564E-02
 1.161454797E+00 6.881895661E-02
 1.159690499E+00 7.022100687E-02
 1.157918334E+00 7.165161520E-02
 1.156138778E+00 7.311137766E-02
 1.154352307E+00 7.460086793E-02
 1.152559280E+00 7.612071931E-02
 1.150760174E+00 7.767151296E-02
 1.148955226E+00 7.925391197E-02
 1.147145152E+00 8.086855710E-02
 1.145330191E+00 8.251608908E-02
 1.143510818E+00 8.419719338E-02
 1.141687632E+00 8.591254056E-02
 1.139861107E+00 8.766283095E-02
 1.138031602E+00 8.944877982E-02
 1.136199713E+00 9.127111733E-02
 1.134365797E+00 9.313058853E-02
 1.132530451E+00 9.502793849E-02
 1.130694270E+00 9.696392715E-02
 1.128857613E+00 9.893937409E-02
 1.127021074E+00 1.009550691E-01
 1.125185251E+00 1.030118167E-01
 1.123350382E+00 1.051104814E-01
 1.121517301E+00 1.072518975E-01
 1.119686484E+00 1.094369292E-01
 1.117858410E+00 1.116664857E-01
 1.116033673E+00 1.139414757E-01
 1.114212751E+00 1.162627935E-01
 1.112396240E+00 1.186314225E-01
 1.110584497E+00 1.210482866E-01
 1.108778477E+00 1.235143989E-01
 1.106978297E+00 1.260307580E-01
 1.105184674E+00 1.285983771E-01
 1.103398323E+00 1.312183142E-01
 1.101619363E+00 1.338916272E-01
 1.099848628E+00 1.366193891E-01
 1.098086715E+00 1.394027323E-01
 1.096333861E+00 1.422427893E-01
 1.094590902E+00 1.451406926E-01
 1.092858076E+00 1.480976492E-01
 1.091135979E+00 1.511148363E-01
 1.089425206E+00 1.541934907E-01
 1.087726116E+00 1.573348790E-01
 1.086039305E+00 1.605402529E-01
 1.084365249E+00 1.638109386E-01
 1.082704306E+00 1.671482474E-01
 1.081057072E+00 1.705535650E-01
 1.079423904E+00 1.740282476E-01
 1.077805161E+00 1.775737107E-01
 1.076201439E+00 1.811914295E-01
 1.074613094E+00 1.848828346E-01
 1.073040485E+00 1.886494458E-01
 1.071484089E+00 1.924927980E-01
 1.069944143E+00 1.964144409E-01
 1.068421125E+00 2.004159838E-01
 1.066915393E+00 2.044990510E-01
 1.065427184E+00 2.086653262E-01
 1.063956857E+00 2.129164487E-01
 1.062504768E+00 2.172542065E-01
 1.061070919E+00 2.216802984E-01
 1.059656024E+00 2.261966020E-01
 1.058260083E+00 2.308049053E-01
 1.056883454E+00 2.355070859E-01
 1.055526257E+00 2.403050512E-01
 1.054188609E+00 2.452007979E-01
 1.052870870E+00 2.501962483E-01
 1.051573157E+00 2.552934885E-01
 1.050295591E+00 2.604945600E-01
 1.049038410E+00 2.658016384E-01
 1.047801733E+00 2.712168097E-01
 1.046585441E+00 2.767422795E-01
 1.045389771E+00 2.823803425E-01
 1.044214845E+00 2.881332934E-01
 1.043060660E+00 2.940034270E-01
 1.041927218E+00 2.999931276E-01
 1.040814638E+00 3.061048985E-01
 1.039722681E+00 3.123411536E-01
 1.038651586E+00 3.187044859E-01
 1.037601352E+00 3.251974285E-01
 1.036571741E+00 3.318226933E-01
 1.035562873E+00 3.385829031E-01
 1.034574509E+00 3.454808295E-01
 1.033606648E+00 3.525193036E-01
 1.032659054E+00 3.597011864E-01
 1.031731844E+00 3.670293689E-01
 1.030824661E+00 3.745068610E-01
 1.029937625E+00 3.821366727E-01
 1.029070377E+00 3.899219334E-01
 1.028222799E+00 3.978658020E-01
 1.027394652E+00 4.059715271E-01
 1.026585817E+00 4.142423570E-01
 1.025796175E+00 4.226817191E-01
 1.025025487E+00 4.312930107E-01
 1.024273396E+00 4.400797188E-01
 1.023539662E+00 4.490454495E-01
 1.022824168E+00 4.581938386E-01
 1.022126794E+00 4.675286412E-01
 1.021447062E+00 4.770535827E-01
 1.020784855E+00 4.867725968E-01
 1.020139694E+00 4.966895580E-01
 1.019511580E+00 5.068086386E-01
 1.018900156E+00 5.171338320E-01
 1.018305182E+00 5.276693702E-01
 1.017726183E+00 5.384196043E-01
 1.017163038E+00 5.493887663E-01
 1.016615629E+00 5.605814457E-01
 1.016083360E+00 5.720021725E-01
 1.015565991E+00 5.836555958E-01
 1.015063405E+00 5.955463648E-01
 1.014575005E+00 6.076794267E-01
 1.014100909E+00 6.200596690E-01
 1.013640523E+00 6.326921582E-01
 1.013193607E+00 6.455819607E-01
 1.012759924E+00 6.587343812E-01
 1.012339115E+00 6.721547842E-01
 1.011930943E+00 6.858485341E-01
 1.011535048E+00 6.998213530E-01
 1.011151195E+00 7.140787840E-01
 1.010779023E+00 7.286266685E-01
 1.010418534E+00 7.434709668E-01
 1.010069132E+00 7.586176991E-01
 1.009730577E+00 7.740730047E-01
 1.009402752E+00 7.898432016E-01
 1.009085178E+00 8.059346080E-01
 1.008777738E+00 8.223538995E-01
 1.008480072E+00 8.391076922E-01
 1.008192062E+00 8.562028408E-01
 1.007913232E+00 8.736462593E-01
 1.007643580E+00 8.914450407E-01
 1.007382751E+00 9.096063972E-01
 1.007130384E+00 9.281377792E-01
 1.006886363E+00 9.470467567E-01
 1.006650448E+00 9.663408399E-01
 1.006422281E+00 9.860281348E-01
 1.006201982E+00 1.006116509E+00
 1.005988836E+00 1.026614070E+00
 1.005782962E+00 1.047529340E+00
 1.005584002E+00 1.068870544E+00
 1.005391836E+00 1.090646625E+00
 1.005206347E+00 1.112866402E+00
 1.005027175E+00 1.135538816E+00
 1.004853964E+00 1.158673048E+00
 1.004687071E+00 1.182278752E+00
 1.004525661E+00 1.206365228E+00
 1.004369974E+00 1.230942488E+00
 1.004219770E+00 1.256020427E+00
 1.004074693E+00 1.281609297E+00
 1.003934860E+00 1.307719469E+00
 1.003799915E+00 1.334361672E+00
 1.003669739E+00 1.361546636E+00
 1.003544211E+00 1.389285326E+00
 1.003422976E+00 1.417589188E+00
 1.003306270E+00 1.446469784E+00
 1.003193736E+00 1.475938678E+00
 1.003085136E+00 1.506007910E+00
 1.002980590E+00 1.536689758E+00
 1.002879620E+00 1.567996740E+00
 1.002782464E+00 1.599941492E+00
 1.002688885E+00 1.632537007E+00
 1.002598643E+00 1.665796638E+00
 1.002511859E+00 1.699733853E+00
 1.002428055E+00 1.734362483E+00
 1.002347469E+00 1.769696712E+00
 1.002269864E+00 1.805750608E+00
 1.002195120E+00 1.842539191E+00
 1.002123117E+00 1.880077124E+00
 1.002053857E+00 1.918379903E+00
 1.001987219E+00 1.957463026E+00
 1.001922965E+00 1.997342348E+00
 1.001861215E+00 2.038034201E+00
 1.001801848E+00 2.079555035E+00
 1.001744747E+00 2.121921778E+00
 1.001689911E+00 2.165151596E+00
 1.001637101E+00 2.209262133E+00
 1.001586318E+00 2.254271507E+00
 1.001537561E+00 2.300197601E+00
 1.001490593E+00 2.347059488E+00
 1.001445532E+00 2.394876242E+00
 1.001402378E+00 2.443666935E+00
 1.001360893E+00 2.493451595E+00
 1.001320958E+00 2.544250727E+00
 1.001282811E+00 2.596084595E+00
 1.001246214E+00 2.648974657E+00
 1.001211047E+00 2.702942133E+00
 1.001177430E+00 2.758009195E+00
 1.001145124E+00 2.814198017E+00
 1.001114368E+00 2.871531487E+00
 1.001084805E+00 2.930033207E+00
 1.001056552E+00 2.989726782E+00
 1.001029730E+00 3.050636292E+00
 1.001003981E+00 3.112786770E+00
 1.000979543E+00 3.176203728E+00
 1.000956178E+00 3.240912437E+00
 1.000934005E+00 3.306939363E+00
 1.000912905E+00 3.374311686E+00
 1.000892997E+00 3.443056345E+00
 1.000874162E+00 3.513201714E+00
 1.000856280E+00 3.584775925E+00
 1.000839591E+00 3.657808542E+00
 1.000823736E+00 3.732329130E+00
 1.000808954E+00 3.808367729E+00
 1.000795245E+00 3.885955572E+00
 1.000782490E+00 3.965123892E+00
 1.000770807E+00 4.045905113E+00
 1.000760078E+00 4.128332138E+00
 1.000750422E+00 4.212438583E+00
 1.000741720E+00 4.298258781E+00
 1.000734091E+00 4.385827065E+00
 1.000727534E+00 4.475179195E+00
 1.000722051E+00 4.566351891E+00
 1.000717640E+00 4.659382343E+00
 1.000714540E+00 4.754307747E+00
 1.000712633E+00 4.851167202E+00
 1.000712156E+00 4.949999809E+00
ZONE T="FUN3D"
 0.000000000E+00 7.450580708E-10
 4.534892738E-03 4.962086564E-07
 9.071658365E-03 9.916723229E-07
 1.361214370E-02 1.487135933E-06
 1.815819368E-02 1.982599542E-06
 2.271166258E-02 2.478063152E-06
 2.727440000E-02 2.977252052E-06
 3.184826300E-02 3.476440952E-06
 3.643511236E-02 3.975629625E-06
 4.103679955E-02 4.478543815E-06
 4.565520585E-02 4.981458005E-06
 5.029219389E-02 5.488097486E-06
 5.494963750E-02 5.998462257E-06
 5.962941423E-02 6.508827028E-06
 6.433340162E-02 7.022917089E-06
 6.906348467E-02 7.537007150E-06
 7.382153720E-02 8.058547792E-06
 7.860944420E-02 8.580088434E-06
 8.342908323E-02 9.105354366E-06
 8.828233182E-02 9.638070878E-06
 9.317103773E-02 1.017078739E-05
 9.809706360E-02 1.070722919E-05
 1.030622423E-01 1.125112158E-05
 1.080683917E-01 1.179873925E-05
 1.131172925E-01 1.235008222E-05
 1.182107180E-01 1.290515047E-05
 1.233503670E-01 1.346766931E-05
 1.285379231E-01 1.403391343E-05
 1.337750107E-01 1.460760814E-05
 1.390631646E-01 1.518502813E-05
 1.444038600E-01 1.576989962E-05
 1.497984827E-01 1.636222078E-05
 1.552483141E-01 1.696199251E-05
 1.607544869E-01 1.756548954E-05
 1.663180441E-01 1.818016244E-05
 1.719398648E-01 1.879856063E-05
 1.776206493E-01 1.942440940E-05
 1.833608896E-01 2.006143404E-05
 1.891609132E-01 2.070590926E-05
 1.950207949E-01 2.135783507E-05
 2.009403706E-01 2.201721145E-05
 2.069192231E-01 2.268776370E-05
 2.129566371E-01 2.336576654E-05
 2.190516144E-01 2.405494524E-05
 2.252028286E-01 2.475157453E-05
 2.314086854E-01 2.545937969E-05
 2.376671880E-01 2.617836071E-05
 2.439760566E-01 2.690851761E-05
 2.503327131E-01 2.764612509E-05
 2.567342222E-01 2.839863373E-05
 2.631773353E-01 2.916231824E-05
 2.696585059E-01 2.993717862E-05
 2.761739194E-01 3.072321488E-05
 2.827195823E-01 3.152042700E-05
 2.892912328E-01 3.233254029E-05
 2.958844304E-01 3.315955473E-05
 3.024945855E-01 3.399774505E-05
 3.091170788E-01 3.485083653E-05
 3.157472014E-01 3.571882917E-05
 3.223801255E-01 3.659799768E-05
 3.290112615E-01 3.749579264E-05
 3.356359899E-01 3.840848876E-05
 3.422497213E-01 3.933236076E-05
 3.488481045E-01 4.027858449E-05
 3.554269671E-01 4.123598410E-05
 3.619822860E-01 4.221201016E-05
 3.685103059E-01 4.320666267E-05
 3.750074506E-01 4.421621634E-05
 3.814704716E-01 4.524812175E-05
 3.878963590E-01 4.629492832E-05
 3.942823708E-01 4.736036135E-05
 4.006260037E-01 4.844442083E-05
 4.069250226E-01 4.955083205E-05
 4.131774902E-01 5.067586972E-05
 4.193817973E-01 5.182325913E-05
 4.255363643E-01 5.298927499E-05
 4.316400290E-01 5.417764260E-05
 4.376917779E-01 5.538836194E-05
 4.436908364E-01 5.662143303E-05
 4.496365488E-01 5.787685586E-05
 4.555285275E-01 5.915835573E-05
 4.613665342E-01 6.046220733E-05
 4.671504498E-01 6.178840704E-05
 4.728802741E-01 6.314441271E-05
 4.785561562E-01 6.452277012E-05
 4.841783643E-01 6.592720456E-05
 4.897472262E-01 6.736144132E-05
 4.952632785E-01 6.882175512E-05
 5.007269382E-01 7.030814595E-05
 5.061388612E-01 7.182433910E-05
 5.114997029E-01 7.337033458E-05
 5.168101192E-01 7.494613237E-05
 5.220709443E-01 7.655173249E-05
 5.272828341E-01 7.818713493E-05
 5.324466825E-01 7.985606499E-05
 5.375633240E-01 8.155852265E-05
 5.426335931E-01 8.329078264E-05
 5.476583242E-01 8.506029553E-05
 5.526385307E-01 8.686333604E-05
 5.575749874E-01 8.869990415E-05
 5.624686480E-01 9.057745046E-05
 5.673202872E-01 9.248852439E-05
 5.721309185E-01 9.443685121E-05
 5.769014955E-01 9.642243094E-05
 5.816327333E-01 9.844898887E-05
 5.863255858E-01 1.005165250E-04
 5.909810066E-01 1.026250393E-04
 5.955997109E-01 1.047708065E-04
 6.001826525E-01 1.069650025E-04
 6.047306061E-01 1.092001767E-04
 6.092444062E-01 1.114800543E-04
 6.137249470E-01 1.138046355E-04
 6.181729436E-01 1.161739201E-04
 6.225891709E-01 1.185953588E-04
 6.269744635E-01 1.210615010E-04
 6.313295364E-01 1.235760719E-04
 6.356552243E-01 1.261427969E-04
 6.399521232E-01 1.287616760E-04
 6.442209482E-01 1.314289839E-04
 6.484625340E-01 1.341558964E-04
 6.526774168E-01 1.369312376E-04
 6.568664312E-01 1.397661836E-04
 6.610300541E-01 1.426570088E-04
 6.651690602E-01 1.456037135E-04
 6.692839861E-01 1.486137480E-04
 6.733754873E-01 1.516796619E-04
 6.774442792E-01 1.548126311E-04
 6.814906597E-01 1.580052049E-04
 6.855154634E-01 1.612611086E-04
 6.895191669E-01 1.645840675E-04
 6.935023665E-01 1.679740817E-04
 6.974655390E-01 1.714311511E-04
 7.014091015E-01 1.749590010E-04
 7.053338289E-01 1.785576314E-04
 7.092399597E-01 1.822307677E-04
 7.131282091E-01 1.859746844E-04
 7.169988751E-01 1.897968323E-04
 7.208525538E-01 1.936972112E-04
 7.246896029E-01 1.976720960E-04
 7.285104990E-01 2.017326624E-04
 7.323157191E-01 2.058714599E-04
 7.361055613E-01 2.100959391E-04
 7.398806810E-01 2.144023747E-04
 7.436411977E-01 2.188019425E-04
 7.473877072E-01 2.232871921E-04
 7.511205077E-01 2.278618485E-04
 7.548400164E-01 2.325296373E-04
 7.585465908E-01 2.372942836E-04
 7.622405887E-01 2.421557874E-04
 7.659223676E-01 2.471141634E-04
 7.695922256E-01 2.521731076E-04
 7.732505798E-01 2.573326346E-04
 7.768976688E-01 2.626001951E-04
 7.805339098E-01 2.679720637E-04
 7.841595411E-01 2.734556911E-04
 7.877748609E-01 2.790473518E-04
 7.913802862E-01 2.847544965E-04
 7.949758172E-01 2.905771253E-04
 7.985621095E-01 2.965189633E-04
 8.021391034E-01 3.025800106E-04
 8.057073355E-01 3.087639925E-04
 8.092668653E-01 3.150746343E-04
 8.128180504E-01 3.215119359E-04
 8.163610697E-01 3.280796227E-04
 8.198962212E-01 3.347814200E-04
 8.234237432E-01 3.416210529E-04
 8.269438148E-01 3.485985217E-04
 8.304566145E-01 3.557175514E-04
 8.339624405E-01 3.629818675E-04
 8.374614120E-01 3.703951952E-04
 8.409538269E-01 3.779575345E-04
 8.444398046E-01 3.856726107E-04
 8.479195833E-01 3.935478744E-04
 8.513932228E-01 4.015796003E-04
 8.548610210E-01 4.097752389E-04
 8.583230376E-01 4.181385157E-04
 8.617794514E-01 4.266731557E-04
 8.652305007E-01 4.353791592E-04
 8.686762452E-01 4.442639765E-04
 8.721168041E-01 4.533276078E-04
 8.755523562E-01 4.625775036E-04
 8.789830208E-01 4.720136640E-04
 8.824087381E-01 4.816435394E-04
 8.858299255E-01 4.914671299E-04
 8.892464638E-01 5.014918861E-04
 8.926584721E-01 5.117215333E-04
 8.960659504E-01 5.221597967E-04
 8.994691968E-01 5.328104016E-04
 9.028680325E-01 5.436733481E-04
 9.062627554E-01 5.547635374E-04
 9.096531868E-01 5.660772440E-04
 9.130395055E-01 5.776181933E-04
 9.164216518E-01 5.893975613E-04
 9.197997451E-01 6.014153478E-04
 9.231736660E-01 6.136790034E-04
 9.265435338E-01 6.261922535E-04
 9.299092889E-01 6.389588234E-04
 9.332709908E-01 6.519861636E-04
 9.366284609E-01 6.652779994E-04
 9.399818182E-01 6.788380560E-04
 9.433308840E-01 6.926775095E-04
 9.466756582E-01 7.068000850E-04
 9.500161409E-01 7.212057826E-04
 9.533521533E-01 7.359095034E-04
 9.566836357E-01 7.509112475E-04
 9.600105286E-01 7.662147400E-04
 9.633325934E-01 7.818348822E-04
 9.666498899E-01 7.977716741E-04
 9.699621201E-01 8.140288410E-04
 9.732692838E-01 8.306212840E-04
 9.765710831E-01 8.475527284E-04
 9.798673391E-01 8.648268995E-04
 9.831579924E-01 8.824512479E-04
 9.864426851E-01 9.004369495E-04
 9.897214174E-01 9.187877295E-04
 9.929937720E-01 9.375147638E-04
 9.962595701E-01 9.566217777E-04
 9.995185733E-01 9.761162219E-04
 1.002770543E+00 9.960092138E-04
 1.006015062E+00 1.016304595E-03
 1.009251952E+00 1.037017209E-03
 1.012480974E+00 1.058150781E-03
 1.015701652E+00 1.079712762E-03
 1.018913746E+00 1.101718051E-03
 1.022116899E+00 1.124166651E-03
 1.025310636E+00 1.147073461E-03
 1.028494835E+00 1.170449657E-03
 1.031668901E+00 1.194298966E-03
 1.034832358E+00 1.218636287E-03
 1.037984967E+00 1.243469073E-03
 1.041126370E+00 1.268808497E-03
 1.044255972E+00 1.294662012E-03
 1.047373295E+00 1.321040792E-03
 1.050477982E+00 1.347959740E-03
 1.053569555E+00 1.375426305E-03
 1.056647420E+00 1.403451664E-03
 1.059711218E+00 1.432050718E-03
 1.062760592E+00 1.461227192E-03
 1.065794706E+00 1.491003437E-03
 1.068813324E+00 1.521383179E-03
 1.071815729E+00 1.552381320E-03
 1.074801564E+00 1.584012760E-03
 1.077770233E+00 1.616288675E-03
 1.080721378E+00 1.649220241E-03
 1.083654284E+00 1.682822360E-03
 1.086568594E+00 1.717109932E-03
 1.089463592E+00 1.752097858E-03
 1.092339039E+00 1.787797315E-03
 1.095194340E+00 1.824223204E-03
 1.098028898E+00 1.861390425E-03
 1.100842476E+00 1.899313880E-03
 1.103634596E+00 1.938012196E-03
 1.106404543E+00 1.977500273E-03
 1.109152198E+00 2.017789287E-03
 1.111877084E+00 2.058901591E-03
 1.114578843E+00 2.100852085E-03
 1.117257118E+00 2.143655671E-03
 1.119911551E+00 2.187330974E-03
 1.122542143E+00 2.231892897E-03
 1.125148296E+00 2.277367515E-03
 1.127729893E+00 2.323766006E-03
 1.130286932E+00 2.371110721E-03
 1.132819057E+00 2.419420285E-03
 1.135326385E+00 2.468713326E-03
 1.137808800E+00 2.519012196E-03