variables="x","cf"
zone, t="CFL3D"
 -2.454554749E+01 0.000000000E+00
 -2.409935760E+01 0.000000000E+00
 -2.366127586E+01 0.000000000E+00
 -2.323115921E+01 0.000000000E+00
 -2.280886269E+01 0.000000000E+00
 -2.239424133E+01 0.000000000E+00
 -2.198715591E+01 0.000000000E+00
 -2.158747101E+01 4.870022784E-31
 -2.119505310E+01 0.000000000E+00
 -2.080976677E+01 0.000000000E+00
 -2.043148422E+01 0.000000000E+00
 -2.006007957E+01 0.000000000E+00
 -1.969542503E+01 0.000000000E+00
 -1.933740044E+01 0.000000000E+00
 -1.898588371E+01 0.000000000E+00
 -1.864075470E+01 0.000000000E+00
 -1.830190277E+01 0.000000000E+00
 -1.796920776E+01 0.000000000E+00
 -1.764256096E+01 0.000000000E+00
 -1.732185364E+01 0.000000000E+00
 -1.700697517E+01 0.000000000E+00
 -1.669782066E+01 0.000000000E+00
 -1.639428520E+01 0.000000000E+00
 -1.609626770E+01 0.000000000E+00
 -1.580366802E+01 0.000000000E+00
 -1.551638699E+01 0.000000000E+00
 -1.523432827E+01 0.000000000E+00
 -1.495739651E+01 0.000000000E+00
 -1.468549919E+01 0.000000000E+00
 -1.441854382E+01 0.000000000E+00
 -1.415644169E+01 0.000000000E+00
 -1.389910412E+01 0.000000000E+00
 -1.364644432E+01 0.000000000E+00
 -1.339837646E+01 0.000000000E+00
 -1.315481949E+01 0.000000000E+00
 -1.291568851E+01 0.000000000E+00
 -1.268090534E+01 0.000000000E+00
 -1.245038986E+01 0.000000000E+00
 -1.222406483E+01 0.000000000E+00
 -1.200185299E+01 0.000000000E+00
 -1.178368187E+01 0.000000000E+00
 -1.156947613E+01 2.320449953E-28
 -1.135916328E+01 0.000000000E+00
 -1.115267467E+01 0.000000000E+00
 -1.094993877E+01 0.000000000E+00
 -1.075088882E+01 2.496108245E-28
 -1.055545712E+01 0.000000000E+00
 -1.036357784E+01 0.000000000E+00
 -1.017518616E+01 0.000000000E+00
 -9.990220070E+00 0.000000000E+00
 -9.808614731E+00 0.000000000E+00
 -9.630311966E+00 0.000000000E+00
 -9.455249786E+00 0.000000000E+00
 -9.283370018E+00 0.000000000E+00
 -9.114614487E+00 0.000000000E+00
 -8.948925972E+00 0.000000000E+00
 -8.786250114E+00 0.000000000E+00
 -8.626531601E+00 0.000000000E+00
 -8.469716072E+00 0.000000000E+00
 -8.315751076E+00 0.000000000E+00
 -8.164585114E+00 0.000000000E+00
 -8.016166687E+00 0.000000000E+00
 -7.870445728E+00 0.000000000E+00
 -7.727374077E+00 0.000000000E+00
 -7.586903095E+00 0.000000000E+00
 -7.448986053E+00 0.000000000E+00
 -7.313575268E+00 0.000000000E+00
 -7.180626392E+00 0.000000000E+00
 -7.050094128E+00 0.000000000E+00
 -6.921934605E+00 0.000000000E+00
 -6.796104908E+00 0.000000000E+00
 -6.672562599E+00 0.000000000E+00
 -6.551265717E+00 0.000000000E+00
 -6.432173729E+00 0.000000000E+00
 -6.315246582E+00 0.000000000E+00
 -6.200444698E+00 0.000000000E+00
 -6.087729931E+00 0.000000000E+00
 -5.977064133E+00 0.000000000E+00
 -5.868409634E+00 0.000000000E+00
 -5.761730671E+00 0.000000000E+00
 -5.656990528E+00 0.000000000E+00
 -5.554154396E+00 0.000000000E+00
 -5.453187466E+00 0.000000000E+00
 -5.354055882E+00 0.000000000E+00
 -5.256726265E+00 0.000000000E+00
 -5.161166191E+00 0.000000000E+00
 -5.067342758E+00 0.000000000E+00
 -4.975224972E+00 0.000000000E+00
 -4.884781361E+00 0.000000000E+00
 -4.795981884E+00 0.000000000E+00
 -4.708796501E+00 0.000000000E+00
 -4.623196125E+00 0.000000000E+00
 -4.539151669E+00 0.000000000E+00
 -4.456634998E+00 0.000000000E+00
 -4.375617981E+00 0.000000000E+00
 -4.296073914E+00 0.000000000E+00
 -4.217975616E+00 0.000000000E+00
 -4.141296864E+00 0.000000000E+00
 -4.066011906E+00 0.000000000E+00
 -3.992095470E+00 0.000000000E+00
 -3.919522524E+00 0.000000000E+00
 -3.848268747E+00 0.000000000E+00
 -3.778310299E+00 0.000000000E+00
 -3.709623337E+00 0.000000000E+00
 -3.642184973E+00 0.000000000E+00
 -3.575972319E+00 0.000000000E+00
 -3.510963202E+00 0.000000000E+00
 -3.447135687E+00 0.000000000E+00
 -3.384468317E+00 0.000000000E+00
 -3.322940111E+00 0.000000000E+00
 -3.262530327E+00 0.000000000E+00
 -3.203218460E+00 0.000000000E+00
 -3.144984961E+00 0.000000000E+00
 -3.087809563E+00 0.000000000E+00
 -3.031673670E+00 0.000000000E+00
 -2.976557970E+00 0.000000000E+00
 -2.922444105E+00 0.000000000E+00
 -2.869313717E+00 0.000000000E+00
 -2.817149162E+00 0.000000000E+00
 -2.765932560E+00 0.000000000E+00
 -2.715646982E+00 0.000000000E+00
 -2.666275501E+00 0.000000000E+00
 -2.617801189E+00 0.000000000E+00
 -2.570208073E+00 0.000000000E+00
 -2.523479939E+00 0.000000000E+00
 -2.477601051E+00 0.000000000E+00
 -2.432555914E+00 0.000000000E+00
 -2.388329744E+00 0.000000000E+00
 -2.344907045E+00 0.000000000E+00
 -2.302273989E+00 0.000000000E+00
 -2.260415554E+00 0.000000000E+00
 -2.219317675E+00 0.000000000E+00
 -2.178966999E+00 0.000000000E+00
 -2.139349699E+00 0.000000000E+00
 -2.100452185E+00 0.000000000E+00
 -2.062261820E+00 0.000000000E+00
 -2.024765491E+00 0.000000000E+00
 -1.987950563E+00 0.000000000E+00
 -1.951804757E+00 0.000000000E+00
 -1.916315794E+00 0.000000000E+00
 -1.881471753E+00 0.000000000E+00
 -1.847261071E+00 0.000000000E+00
 -1.813671947E+00 0.000000000E+00
 -1.780693293E+00 0.000000000E+00
 -1.748314023E+00 0.000000000E+00
 -1.716523051E+00 0.000000000E+00
 -1.685309887E+00 0.000000000E+00
 -1.654663801E+00 0.000000000E+00
 -1.624574780E+00 0.000000000E+00
 -1.595032454E+00 0.000000000E+00
 -1.566026926E+00 0.000000000E+00
 -1.537548423E+00 0.000000000E+00
 -1.509587407E+00 0.000000000E+00
 -1.482134581E+00 0.000000000E+00
 -1.455180407E+00 0.000000000E+00
 -1.428716063E+00 0.000000000E+00
 -1.402732611E+00 2.357750185E-25
 -1.377221227E+00 0.000000000E+00
 -1.352173448E+00 0.000000000E+00
 -1.327580571E+00 0.000000000E+00
 -1.303434610E+00 0.000000000E+00
 -1.279727340E+00 5.147605834E-25
 -1.256450772E+00 5.238442181E-25
 -1.233597040E+00 0.000000000E+00
 -1.211158514E+00 0.000000000E+00
 -1.189127684E+00 0.000000000E+00
 -1.167496920E+00 0.000000000E+00
 -1.146259189E+00 0.000000000E+00
 -1.125407219E+00 0.000000000E+00
 -1.104933977E+00 0.000000000E+00
 -1.084832668E+00 0.000000000E+00
 -1.065096498E+00 0.000000000E+00
 -1.045718670E+00 0.000000000E+00
 -1.026692867E+00 0.000000000E+00
 -1.008012652E+00 0.000000000E+00
 -9.716637135E-01 0.000000000E+00
 -9.539828300E-01 0.000000000E+00
 -9.366229773E-01 0.000000000E+00
 -9.195784330E-01 0.000000000E+00
 -9.028432965E-01 0.000000000E+00
 -8.864120841E-01 0.000000000E+00
 -8.702791333E-01 0.000000000E+00
 -8.544391394E-01 0.000000000E+00
 -8.388866782E-01 0.000000000E+00
 -8.236165643E-01 0.000000000E+00
 -8.086236715E-01 0.000000000E+00
 -7.939029336E-01 0.000000000E+00
 -7.794493437E-01 8.205858340E-25
 -7.652581334E-01 0.000000000E+00
 -7.513244748E-01 0.000000000E+00
 -7.376436591E-01 8.634535217E-25
 -7.242110968E-01 8.781942751E-25
 -7.110222578E-01 0.000000000E+00
 -6.980727911E-01 0.000000000E+00
 -6.853582263E-01 0.000000000E+00
 -6.728742719E-01 0.000000000E+00
 -6.606168747E-01 0.000000000E+00
 -6.485817432E-01 0.000000000E+00
 -6.367649436E-01 0.000000000E+00
 -6.251624227E-01 0.000000000E+00
 -6.137703061E-01 0.000000000E+00
 -6.025847793E-01 0.000000000E+00
 -5.916020870E-01 0.000000000E+00
 -5.808184743E-01 0.000000000E+00
 -5.702303052E-01 0.000000000E+00
 -5.598340631E-01 0.000000000E+00
 -5.496262908E-01 0.000000000E+00
 -5.396034718E-01 0.000000000E+00
 -5.297622681E-01 0.000000000E+00
 -5.200993419E-01 0.000000000E+00
 -5.106114745E-01 0.000000000E+00
 -5.012954473E-01 0.000000000E+00
 -4.921481311E-01 0.000000000E+00
 -4.831664860E-01 0.000000000E+00
 -4.743474126E-01 0.000000000E+00
 -4.656880200E-01 0.000000000E+00
 -4.571853280E-01 0.000000000E+00
 -4.488365352E-01 0.000000000E+00
 -4.406387806E-01 0.000000000E+00
 -4.325893521E-01 0.000000000E+00
 -4.246855080E-01 0.000000000E+00
 -4.169245660E-01 0.000000000E+00
 -4.093039930E-01 0.000000000E+00
 -4.018211365E-01 0.000000000E+00
 -3.944735229E-01 0.000000000E+00
 -3.872586787E-01 0.000000000E+00
 -3.801741898E-01 0.000000000E+00
 -3.732176125E-01 0.000000000E+00
 -3.663866818E-01 0.000000000E+00
 -3.596790433E-01 0.000000000E+00
 -3.530924618E-01 0.000000000E+00
 -3.466247022E-01 0.000000000E+00
 -3.402736187E-01 0.000000000E+00
 -3.340370655E-01 0.000000000E+00
 -3.279129267E-01 0.000000000E+00
 -3.218991458E-01 0.000000000E+00
 -3.159936965E-01 0.000000000E+00
 -3.101946115E-01 0.000000000E+00
 -3.044999242E-01 0.000000000E+00
 -2.989077270E-01 0.000000000E+00
 -2.934161127E-01 0.000000000E+00
 -2.880232632E-01 0.000000000E+00
 -2.827273309E-01 0.000000000E+00
 -2.775265872E-01 0.000000000E+00
 -2.724192142E-01 0.000000000E+00
 -2.674035430E-01 0.000000000E+00
 -2.624778748E-01 0.000000000E+00
 -2.576405406E-01 0.000000000E+00
 -2.528899014E-01 0.000000000E+00
 -2.482243925E-01 0.000000000E+00
 -2.436424345E-01 0.000000000E+00
 -2.391424626E-01 0.000000000E+00
 -2.347229719E-01 0.000000000E+00
 -2.303824872E-01 0.000000000E+00
 -2.261195332E-01 0.000000000E+00
 -2.219326943E-01 0.000000000E+00
 -2.178205401E-01 0.000000000E+00
 -2.137816995E-01 0.000000000E+00
 -2.098148018E-01 0.000000000E+00
 -2.059185207E-01 0.000000000E+00
 -2.020915598E-01 0.000000000E+00
 -1.983325928E-01 0.000000000E+00
 -1.946403831E-01 0.000000000E+00
 -1.910136938E-01 0.000000000E+00
 -1.874512732E-01 0.000000000E+00
 -1.839519590E-01 0.000000000E+00
 -1.805145442E-01 0.000000000E+00
 -1.771378815E-01 0.000000000E+00
 -1.738208532E-01 0.000000000E+00
 -1.705623120E-01 0.000000000E+00
 -1.673611701E-01 0.000000000E+00
 -1.642163694E-01 0.000000000E+00
 -1.611268222E-01 0.000000000E+00
 -1.580915153E-01 0.000000000E+00
 -1.551094055E-01 0.000000000E+00
 -1.521795094E-01 0.000000000E+00
 -1.493008286E-01 0.000000000E+00
 -1.464723945E-01 0.000000000E+00
 -1.436932534E-01 0.000000000E+00
 -1.409624815E-01 0.000000000E+00
 -1.382791400E-01 0.000000000E+00
 -1.356423497E-01 0.000000000E+00
 -1.330512166E-01 0.000000000E+00
 -1.305048466E-01 0.000000000E+00
 -1.280024052E-01 0.000000000E+00
 -1.255430430E-01 0.000000000E+00
 -1.231259406E-01 0.000000000E+00
 -1.207502708E-01 0.000000000E+00
 -1.184152439E-01 0.000000000E+00
 -1.161200702E-01 0.000000000E+00
 -1.138639748E-01 0.000000000E+00
 -1.116462052E-01 0.000000000E+00
 -1.094660088E-01 0.000000000E+00
 -1.073226556E-01 0.000000000E+00
 -1.052154228E-01 0.000000000E+00
 -1.031436026E-01 0.000000000E+00
 -1.011064947E-01 0.000000000E+00
 -9.910341352E-02 0.000000000E+00
 -9.713368863E-02 0.000000000E+00
 -9.519665688E-02 0.000000000E+00
 -9.329166263E-02 0.000000000E+00
 -9.141806513E-02 0.000000000E+00
 -8.957523853E-02 0.000000000E+00
 -8.776255697E-02 0.000000000E+00
 -8.597940952E-02 0.000000000E+00
 -8.422520012E-02 0.000000000E+00
 -8.249934018E-02 0.000000000E+00
 -8.080124855E-02 0.000000000E+00
 -7.913035154E-02 0.000000000E+00
 -7.748608291E-02 0.000000000E+00
 -7.586789131E-02 0.000000000E+00
 -7.427524030E-02 0.000000000E+00
 -7.270757854E-02 0.000000000E+00
 -7.116439939E-02 0.000000000E+00
 -6.964515895E-02 0.000000000E+00
 -6.814936548E-02 0.000000000E+00
 -6.667650491E-02 0.000000000E+00
 -6.522608548E-02 0.000000000E+00
 -6.379762292E-02 0.000000000E+00
 -6.239062548E-02 0.000000000E+00
 -6.100463122E-02 0.000000000E+00
 -5.963916704E-02 0.000000000E+00
 -5.829377472E-02 0.000000000E+00
 -5.696799979E-02 0.000000000E+00
 -5.566140264E-02 0.000000000E+00
 -5.437353626E-02 0.000000000E+00
 -5.310396850E-02 0.000000000E+00
 -5.185227469E-02 0.000000000E+00
 -5.061803013E-02 0.000000000E+00
 -4.940082505E-02 1.233541403E-23
 -4.820024595E-02 0.000000000E+00
 -4.701588675E-02 0.000000000E+00
 -4.584735259E-02 0.000000000E+00
 -4.469424859E-02 0.000000000E+00
 -4.355618730E-02 0.000000000E+00
 -4.243278503E-02 0.000000000E+00
 -4.132366180E-02 0.000000000E+00
 -4.022844881E-02 0.000000000E+00
 -3.914677724E-02 1.357805849E-23
 -3.807827830E-02 0.000000000E+00
 -3.702259436E-02 0.000000000E+00
 -3.597937152E-02 0.000000000E+00
 -3.494825587E-02 0.000000000E+00
 -3.392890468E-02 0.000000000E+00
 -3.292097151E-02 0.000000000E+00
 -3.192412108E-02 0.000000000E+00
 -3.093801253E-02 0.000000000E+00
 -2.996231616E-02 0.000000000E+00
 -2.899670415E-02 0.000000000E+00
 -2.804085240E-02 0.000000000E+00
 -2.615714073E-02 0.000000000E+00
 -2.522864752E-02 0.000000000E+00
 -2.430864610E-02 0.000000000E+00
 -2.339682542E-02 0.000000000E+00
 -2.249288000E-02 0.000000000E+00
 -2.159650251E-02 0.000000000E+00
 -2.070739679E-02 0.000000000E+00
 -1.982525736E-02 0.000000000E+00
 -1.894979179E-02 0.000000000E+00
 -1.808070391E-02 0.000000000E+00
 -1.721770130E-02 0.000000000E+00
 -1.636049338E-02 0.000000000E+00
 -1.550879143E-02 0.000000000E+00
 -1.466230955E-02 0.000000000E+00
 -1.382076181E-02 0.000000000E+00
 -1.298386604E-02 0.000000000E+00
 -1.215134002E-02 0.000000000E+00
 -1.132290438E-02 0.000000000E+00
 -1.049827877E-02 0.000000000E+00
 -9.677186608E-03 7.644476797E-23
 -8.859351277E-03 0.000000000E+00
 -8.044498041E-03 0.000000000E+00
 -7.232351694E-03 0.000000000E+00
 -6.422639824E-03 0.000000000E+00
 -5.615089089E-03 0.000000000E+00
 -4.809428938E-03 0.000000000E+00
 -4.005386960E-03 0.000000000E+00
 -3.202693071E-03 0.000000000E+00
 -2.401077189E-03 0.000000000E+00
 -1.600269228E-03 0.000000000E+00
 -7.999999798E-04 0.000000000E+00
 2.780639759E-16 1.733256504E-02
 7.999999798E-04 2.212542109E-02
 1.606264967E-03 8.578260429E-03
 2.418837277E-03 7.476028986E-03
 3.237759229E-03 7.039099466E-03
 4.063073546E-03 6.866252050E-03
 4.894822836E-03 6.817988586E-03
 5.733050406E-03 6.797034293E-03
 6.577799562E-03 6.762710400E-03
 7.429112680E-03 6.705159321E-03
 8.287033997E-03 6.629875861E-03
 9.151606821E-03 6.545175798E-03
 1.002287492E-02 6.457641721E-03
 1.090088207E-02 6.371251307E-03
 1.178567298E-02 6.288059056E-03
 1.267729141E-02 6.208936684E-03
 1.357578207E-02 6.134059280E-03
 1.448118873E-02 6.063198205E-03
 1.539355703E-02 5.995933898E-03
 1.631293073E-02 5.931827705E-03
 1.723935641E-02 5.870523397E-03
 1.817287691E-02 5.811778829E-03
 1.911354065E-02 5.755440332E-03
 2.006139047E-02 5.701405462E-03
 2.101647109E-02 5.649587605E-03
 2.197883092E-02 5.599896889E-03
 2.294851467E-02 5.552235525E-03
 2.392556891E-02 5.506497808E-03
 2.491003834E-02 5.462575238E-03
 2.590196952E-02 5.420358852E-03
 2.690140903E-02 5.379744340E-03
 2.790840343E-02 5.340630654E-03
 2.892299928E-02 5.302924197E-03
 2.994524129E-02 5.266536493E-03
 3.097517975E-02 5.231385119E-03
 3.201285750E-02 5.197394639E-03
 3.305832669E-02 5.164495204E-03
 3.411163017E-02 5.132622086E-03
 3.517281637E-02 5.101715215E-03
 3.624192998E-02 5.071720108E-03
 3.731902316E-02 5.042586010E-03
 3.840414062E-02 5.014265887E-03
 3.949733078E-02 4.986715969E-03
 4.059864208E-02 4.959896207E-03
 4.170811921E-02 4.933769349E-03
 4.282581061E-02 4.908300936E-03
 4.395176470E-02 4.883457907E-03
 4.508602992E-02 4.859210458E-03
 4.622865468E-02 4.835531116E-03
 4.737968370E-02 4.812392406E-03
 4.853916913E-02 4.789770581E-03
 4.970715567E-02 4.767642822E-03
 5.088369548E-02 4.745986313E-03
 5.206883326E-02 4.724782426E-03
 5.326262116E-02 4.704010673E-03
 5.446510017E-02 4.683654290E-03
 5.567632616E-02 4.663695581E-03
 5.689634383E-02 4.644119181E-03
 5.812519789E-02 4.624909256E-03
 5.936294422E-02 4.606052302E-03
 6.060962752E-02 4.587534815E-03
 6.186529621E-02 4.569343291E-03
 6.312999874E-02 4.551465623E-03
 6.440377980E-02 4.533891100E-03
 6.568669528E-02 4.516607616E-03
 6.697878242E-02 4.499605857E-03
 6.828010082E-02 4.482875578E-03
 6.959069520E-02 4.466407467E-03
 7.091061771E-02 4.450192675E-03
 7.223990560E-02 4.434221890E-03
 7.357861102E-02 4.418487661E-03
 7.492678612E-02 4.402982071E-03
 7.628447562E-02 4.387697205E-03
 7.765173167E-02 4.372626543E-03
 7.902859896E-02 4.357762635E-03
 8.041512221E-02 4.343098961E-03
 8.181135356E-02 4.328629468E-03
 8.321733773E-02 4.314347636E-03
 8.463312685E-02 4.300248343E-03
 8.605875820E-02 4.286326002E-03
 8.749429882E-02 4.272574559E-03
 8.893977106E-02 4.258989356E-03
 9.039524198E-02 4.245565273E-03
 9.186074883E-02 4.232297651E-03
 9.333634377E-02 4.219181836E-03
 9.482206404E-02 4.206213169E-03
 9.631796926E-02 4.193387460E-03
 9.782408923E-02 4.180700984E-03
 9.934049100E-02 4.168148618E-03
 1.008672044E-01 4.155727569E-03
 1.024042815E-01 4.143433645E-03
 1.039517671E-01 4.131263122E-03
 1.055097058E-01 4.119212739E-03
 1.070781425E-01 4.107278306E-03
 1.086571217E-01 4.095457494E-03
 1.102466956E-01 4.083746579E-03
 1.118469015E-01 4.072142299E-03
 1.134577915E-01 4.060641862E-03
 1.150793955E-01 4.049242008E-03
 1.167117655E-01 4.037939943E-03
 1.183549538E-01 4.026733339E-03
 1.200089902E-01 4.015618470E-03
 1.216739267E-01 4.004593007E-03
 1.233498007E-01 3.993654624E-03
 1.250366569E-01 3.982800525E-03
 1.267345399E-01 3.972028382E-03
 1.284434944E-01 3.961334936E-03
 1.301635504E-01 3.950718790E-03
 1.318947524E-01 3.940177150E-03
 1.336371601E-01 3.929707687E-03
 1.353907883E-01 3.919307608E-03
 1.371556818E-01 3.908975516E-03
 1.389319003E-01 3.898708615E-03
 1.407194734E-01 3.888504812E-03
 1.425184160E-01 3.878362011E-03
 1.443288028E-01 3.868278116E-03
 1.461506635E-01 3.858250799E-03
 1.479840279E-01 3.848278197E-03
 1.498289257E-01 3.838357981E-03
 1.516854167E-01 3.828488290E-03
 1.535535157E-01 3.818667261E-03
 1.554332823E-01 3.808892332E-03
 1.573247313E-01 3.799161874E-03
 1.592279077E-01 3.789474024E-03
 1.611428410E-01 3.779826220E-03
 1.630695611E-01 3.770216834E-03
 1.650081277E-01 3.760644002E-03
 1.669585407E-01 3.751105163E-03
 1.689208597E-01 3.741598921E-03
 1.708951145E-01 3.732122947E-03
 1.728813201E-01 3.722675145E-03
 1.748795062E-01 3.713253653E-03
 1.768897325E-01 3.703856142E-03
 1.789119989E-01 3.694480984E-03
 1.809463501E-01 3.685125615E-03
 1.829928160E-01 3.675788175E-03
 1.850514114E-01 3.666466568E-03
 1.871221811E-01 3.657158697E-03
 1.892051548E-01 3.647862235E-03
 1.913003325E-01 3.638573224E-03
 1.934077740E-01 3.629287239E-03
 1.955274791E-01 3.619999625E-03
 1.976594776E-01 3.610690357E-03
 1.998037994E-01 3.601383418E-03
 2.041295022E-01 3.582943929E-03
 2.063109279E-01 3.573666327E-03
 2.085047662E-01 3.564350307E-03
 2.107110322E-01 3.555029398E-03
 2.129297554E-01 3.545695450E-03
 2.151609361E-01 3.536344273E-03
 2.174046040E-01 3.526971908E-03
 2.196607888E-01 3.517575096E-03
 2.219294906E-01 3.508149879E-03
 2.242107242E-01 3.498692997E-03
 2.265045196E-01 3.489200957E-03
 2.288108766E-01 3.479670268E-03
 2.311298251E-01 3.470096504E-03
 2.334613651E-01 3.460476175E-03
 2.358054966E-01 3.450805089E-03
 2.381622493E-01 3.441078821E-03
 2.405316383E-01 3.431292484E-03
 2.429136485E-01 3.421441652E-03
 2.453083098E-01 3.411521204E-03
 2.477156222E-01 3.401525551E-03
 2.501356006E-01 3.391449340E-03
 2.525682449E-01 3.381286515E-03
 2.550135255E-01 3.371030558E-03
 2.574715018E-01 3.360674717E-03
 2.599421442E-01 3.350212006E-03
 2.624254823E-01 3.339634277E-03
 2.649214864E-01 3.328933613E-03
 2.674301565E-01 3.318100935E-03
 2.699515224E-01 3.307126695E-03
 2.724855542E-01 3.296000417E-03
 2.750322521E-01 3.284710692E-03
 2.775916159E-01 3.273245180E-03
 2.801636457E-01 3.261589911E-03
 2.827483416E-01 3.249729984E-03
 2.853456736E-01 3.237648401E-03
 2.879556417E-01 3.225326305E-03
 2.905782461E-01 3.212741809E-03
 2.932134569E-01 3.199868370E-03
 2.958613038E-01 3.186675254E-03
 2.985217273E-01 3.173124045E-03
 3.011947274E-01 3.159170970E-03
 3.038803041E-01 3.144779010E-03
 3.065784574E-01 3.129935125E-03
 3.092890978E-01 3.114643740E-03
 3.120122850E-01 3.098913701E-03
 3.147479594E-01 3.082757583E-03
 3.174961209E-01 3.066190053E-03
 3.202567399E-01 3.049229505E-03
 3.230297565E-01 3.031895729E-03
 3.258152306E-01 3.014212707E-03
 3.286130428E-01 2.996204887E-03
 3.314232230E-01 2.977903700E-03
 3.342457414E-01 2.959363163E-03
 3.370805681E-01 2.940614009E-03
 3.399276435E-01 2.921658102E-03
 3.427869678E-01 2.902536886E-03
 3.456584811E-01 2.883284353E-03
 3.485421836E-01 2.863980597E-03
 3.514380157E-01 2.844723873E-03
 3.543459177E-01 2.825479489E-03
 3.572659194E-01 2.806219738E-03
 3.601979017E-01 2.787080361E-03
 3.631418645E-01 2.768221311E-03
 3.660977483E-01 2.749579726E-03
 3.690654933E-01 2.731056884E-03
 3.720450699E-01 2.712944988E-03
 3.750364482E-01 2.695363015E-03
 3.780395389E-01 2.677990124E-03
 3.810542822E-01 2.661153907E-03
 3.840806186E-01 2.645030851E-03
 3.871185184E-01 2.629291732E-03
 3.901678622E-01 2.614318160E-03
 3.932286203E-01 2.599987667E-03
 3.963007331E-01 2.586378483E-03
 3.993840814E-01 2.573791891E-03
 4.024785757E-01 2.561885398E-03
 4.055841863E-01 2.550926991E-03
 4.087007940E-01 2.540948102E-03
 4.118283093E-01 2.531956183E-03
 4.149666429E-01 2.524069743E-03
 4.181156456E-01 2.517249668E-03
 4.212752879E-01 2.511638682E-03
 4.244453907E-01 2.507171361E-03
 4.276258647E-01 2.504007425E-03
 4.308166206E-01 2.502065850E-03
 4.340174794E-01 2.501484705E-03
 4.372283220E-01 2.502317540E-03
 4.404490292E-01 2.504434204E-03
 4.436794519E-01 2.508234000E-03
 4.469194710E-01 2.513258718E-03
 4.501688778E-01 2.519837348E-03
 4.534275532E-01 2.528091893E-03
 4.566953778E-01 2.537653083E-03
 4.599721134E-01 2.549172379E-03
 4.632576406E-01 2.562072128E-03
 4.665518105E-01 2.576470608E-03
 4.698544145E-01 2.593074227E-03
 4.731652737E-01 2.610999160E-03
 4.764842689E-01 2.630459145E-03
 4.798111618E-01 2.652171534E-03
 4.831458032E-01 2.675473457E-03
 4.864880145E-01 2.700163051E-03
 4.898376465E-01 2.726983512E-03
 4.931944907E-01 2.755899215E-03
 4.965583980E-01 2.786197234E-03
 4.999292195E-01 2.818178618E-03
 5.033067465E-01 2.852430101E-03
 5.066908002E-01 2.888606861E-03
 5.100812912E-01 2.926298417E-03
 5.134780407E-01 2.965659136E-03
 5.168808699E-01 3.007207299E-03
 5.202897191E-01 3.050921718E-03
 5.237043500E-01 3.096170258E-03
 5.271247625E-01 3.143050941E-03
 5.305507779E-01 3.191797296E-03
 5.339823365E-01 3.242614679E-03
 5.374191999E-01 3.295503557E-03
 5.408614874E-01 3.349943319E-03
 5.443089604E-01 3.406011034E-03
 5.477616787E-01 3.463889938E-03
 5.512195230E-01 3.523500403E-03
 5.546824932E-01 3.585008206E-03
 5.581504703E-01 3.648349317E-03
 5.616235137E-01 3.713175654E-03
 5.651015639E-01 3.779523540E-03
 5.685847402E-01 3.847475862E-03
 5.720728636E-01 3.916950431E-03
 5.755661130E-01 3.987903241E-03
 5.790644884E-01 4.060292616E-03
 5.825679898E-01 4.134091549E-03
 5.860767365E-01 4.209170584E-03
 5.895906687E-01 4.285383504E-03
 5.931099653E-01 4.362689331E-03
 5.966346264E-01 4.441025667E-03
 6.001648307E-01 4.520283081E-03
 6.037005186E-01 4.600350279E-03
 6.072419286E-01 4.681110848E-03
 6.107890606E-01 4.762437660E-03
 6.143419743E-01 4.844192415E-03
 6.179008484E-01 4.926227964E-03
 6.214657426E-01 5.008382257E-03
 6.250367761E-01 5.090489518E-03
 6.286140084E-01 5.172368605E-03
 6.321974993E-01 5.253823474E-03
 6.357874274E-01 5.334653892E-03
 6.393837333E-01 5.414647982E-03
 6.429865360E-01 5.493573844E-03
 6.465959549E-01 5.571196787E-03
 6.502119303E-01 5.647273734E-03
 6.538345814E-01 5.721542053E-03
 6.574639082E-01 5.793731194E-03
 6.610997915E-01 5.863572937E-03
 6.647424102E-01 5.930784624E-03
 6.683915854E-01 5.995076150E-03
 6.720473170E-01 6.056156941E-03
 6.757094860E-01 6.113730837E-03
 6.793780923E-01 6.167509593E-03
 6.830529571E-01 6.217217073E-03
 6.867339015E-01 6.262582261E-03
 6.904208660E-01 6.303339265E-03
 6.941135526E-01 6.339216605E-03
 6.978118420E-01 6.369378883E-03
 7.015154362E-01 6.393539719E-03
 7.052240968E-01 6.412347313E-03
 7.089375854E-01 6.425489672E-03
 7.126555443E-01 6.432478316E-03
 7.163776159E-01 6.433259696E-03
 7.201035023E-01 6.427714135E-03
 7.238328457E-01 6.415339187E-03
 7.275652289E-01 6.395478267E-03
 7.313002348E-01 6.368746050E-03
 7.350375056E-01 6.335891318E-03
 7.387765050E-01 6.296602078E-03
 7.425169349E-01 6.250684150E-03
 7.462582588E-01 6.198340096E-03
 7.537417412E-01 6.072326098E-03
 7.574830651E-01 6.000650115E-03
 7.612234950E-01 5.923815537E-03
 7.649624944E-01 5.841418169E-03
 7.686997652E-01 5.753970705E-03
 7.724347711E-01 5.661396775E-03
 7.761671543E-01 5.563593935E-03
 7.798964977E-01 5.461593159E-03
 7.836223841E-01 5.356408190E-03
 7.873444557E-01 5.248059053E-03
 7.910624146E-01 5.136749242E-03
 7.947759032E-01 5.022914149E-03
 7.984845638E-01 4.906991962E-03
 8.021881580E-01 4.789006431E-03
 8.058864474E-01 4.669221118E-03
 8.095791340E-01 4.548781086E-03
 8.132660985E-01 4.428087268E-03
 8.169470429E-01 4.307159223E-03
 8.206219077E-01 4.186396487E-03
 8.242905140E-01 4.066123161E-03
 8.279526830E-01 3.946657758E-03
 8.316084146E-01 3.828302026E-03
 8.352575898E-01 3.711340018E-03
 8.389002085E-01 3.596034367E-03
 8.425360918E-01 3.482632572E-03
 8.461654186E-01 3.371357918E-03
 8.497880697E-01 3.262418089E-03
 8.534040451E-01 3.156005405E-03
 8.570134640E-01 3.052286804E-03
 8.606162667E-01 2.951409202E-03
 8.642125726E-01 2.853508340E-03
 8.678025007E-01 2.758699702E-03
 8.713859916E-01 2.667077817E-03
 8.749632239E-01 2.578725340E-03
 8.785342574E-01 2.493710024E-03
 8.820991516E-01 2.412079368E-03
 8.856580257E-01 2.333869226E-03
 8.892109394E-01 2.259103581E-03
 8.927580714E-01 2.187789651E-03
 8.962994814E-01 2.119924407E-03
 8.998351693E-01 2.055492252E-03
 9.033653736E-01 1.994467108E-03
 9.068900347E-01 1.936815912E-03
 9.104093313E-01 1.882495824E-03
 9.139232635E-01 1.831447706E-03
 9.174320102E-01 1.783631626E-03
 9.209355116E-01 1.739022206E-03
 9.244338870E-01 1.697520260E-03
 9.279271364E-01 1.659012982E-03
 9.314152598E-01 1.623433316E-03
 9.348984361E-01 1.590704778E-03
 9.383764863E-01 1.560755423E-03
 9.418495297E-01 1.533465227E-03
 9.453175068E-01 1.508823130E-03
 9.487804770E-01 1.486834837E-03
 9.522383213E-01 1.467247843E-03
 9.556910396E-01 1.449928037E-03
 9.591385126E-01 1.434883452E-03
 9.625808001E-01 1.421966823E-03
 9.660176635E-01 1.411215402E-03
 9.694492221E-01 1.402683556E-03
 9.728752375E-01 1.396027859E-03
 9.762956500E-01 1.391137135E-03
 9.797102809E-01 1.387983561E-03
 9.831191301E-01 1.386628253E-03
 9.865219593E-01 1.387170283E-03
 9.899187088E-01 1.389212208E-03
 9.933091998E-01 1.392582781E-03
 9.966932535E-01 1.397451852E-03
 1.000070810E+00 1.403928967E-03
 1.003441572E+00 1.411798177E-03
 1.006805539E+00 1.420705346E-03
 1.010162354E+00 1.430853736E-03
 1.013512015E+00 1.442468842E-03
 1.016854167E+00 1.455119578E-03
 1.020188808E+00 1.468598610E-03
 1.023515701E+00 1.483280677E-03
 1.026834726E+00 1.499108272E-03
 1.030145645E+00 1.515547396E-03
 1.033448219E+00 1.532904105E-03
 1.036742330E+00 1.551360474E-03
 1.040027857E+00 1.570272725E-03
 1.043304682E+00 1.589956810E-03
 1.046572447E+00 1.610479550E-03
 1.049831152E+00 1.631389488E-03
 1.053080559E+00 1.653033309E-03
 1.056320548E+00 1.675102860E-03
 1.059551001E+00 1.697587431E-03
 1.062771678E+00 1.720656874E-03
 1.065982580E+00 1.743939822E-03
 1.069183350E+00 1.767617068E-03
 1.072374105E+00 1.791526913E-03
 1.075554609E+00 1.815629890E-03
 1.078724742E+00 1.839938457E-03
 1.081884384E+00 1.864324789E-03
 1.085033417E+00 1.888821134E-03
 1.088171721E+00 1.913301647E-03
 1.091299176E+00 1.937789726E-03
 1.094415784E+00 1.962174661E-03
 1.097521424E+00 1.986465184E-03
 1.100615978E+00 2.010582713E-03
 1.103699327E+00 2.034463920E-03
 1.106771350E+00 2.058247803E-03
 1.109832168E+00 2.081609564E-03
 1.112881541E+00 2.104668878E-03
 1.115919352E+00 2.127405955E-03
 1.118945718E+00 2.149659209E-03
 1.121960521E+00 2.171646571E-03
 1.124963522E+00 2.193062101E-03
 1.127954960E+00 2.213938395E-03
 1.130934477E+00 2.234465443E-03
 1.133902311E+00 2.254365012E-03
 1.136858106E+00 2.273628255E-03
 1.139802098E+00 2.292410703E-03
 1.142734051E+00 2.310615266E-03
 1.145654082E+00 2.328131115E-03
 1.148561954E+00 2.345004585E-03
 1.151457787E+00 2.361302264E-03
 1.154341459E+00 2.376978518E-03
 1.157212973E+00 2.391963033E-03
 1.160072327E+00 2.406280022E-03
 1.162919402E+00 2.419957425E-03
 1.165754199E+00 2.432999900E-03
 1.168576717E+00 2.445420716E-03
 1.171386957E+00 2.457204042E-03
 1.174184799E+00 2.468355000E-03
 1.176970243E+00 2.478901064E-03
 1.179743290E+00 2.488861326E-03
 1.182503939E+00 2.498254180E-03
 1.185252070E+00 2.507101977E-03
 1.187987685E+00 2.515429631E-03
 1.190710902E+00 2.523266012E-03
 1.193421602E+00 2.530644182E-03
 1.196119666E+00 2.537602093E-03
 1.198805213E+00 2.544183983E-03
 1.201478243E+00 2.550438978E-03
 1.204138756E+00 2.556409454E-03
 1.206786513E+00 2.562121488E-03
 1.209421754E+00 2.567590913E-03
 1.212044358E+00 2.572831465E-03
 1.214654326E+00 2.577856183E-03
 1.217251658E+00 2.582677174E-03
 1.219836354E+00 2.587305382E-03
 1.222408414E+00 2.591751050E-03
 1.224967718E+00 2.596023725E-03
 1.227514505E+00 2.600132255E-03
 1.230048537E+00 2.604084555E-03
 1.232569814E+00 2.607888775E-03
 1.235078573E+00 2.611551434E-03
 1.237574458E+00 2.615079749E-03
 1.240057826E+00 2.618479775E-03
 1.242528439E+00 2.621757099E-03
 1.244986415E+00 2.624917775E-03
 1.247431755E+00 2.627966693E-03
 1.249864459E+00 2.630908741E-03
 1.252284408E+00 2.633748809E-03
 1.254691720E+00 2.636490855E-03
 1.257086396E+00 2.639139537E-03
 1.259468317E+00 2.641698346E-03
 1.261837721E+00 2.644171473E-03
 1.264194489E+00 2.646561945E-03
 1.266538620E+00 2.648873487E-03
 1.268870234E+00 2.651109360E-03
 1.271189094E+00 2.653272357E-03
 1.273495436E+00 2.655365737E-03
 1.275789261E+00 2.657392062E-03
 1.278070450E+00 2.659354126E-03
 1.280339241E+00 2.661254490E-03
 1.282595396E+00 2.663096180E-03
 1.284839034E+00 2.664882457E-03
 1.287070274E+00 2.666616812E-03
 1.289288998E+00 2.668305300E-03
 1.291495204E+00 2.669945825E-03
 1.293689013E+00 2.671554917E-03
 1.295870543E+00 2.673117910E-03
 1.300196171E+00 2.675873926E-03
 1.302340508E+00 2.677229699E-03
 1.304472566E+00 2.678584540E-03
 1.306592226E+00 2.679897007E-03
 1.308699608E+00 2.681171289E-03
 1.310794830E+00 2.682407387E-03
 1.312877774E+00 2.683607163E-03
 1.314948559E+00 2.684772480E-03
 1.317007184E+00 2.685904270E-03
 1.319053650E+00 2.687003929E-03
 1.321087956E+00 2.688072855E-03
 1.323110223E+00 2.689111745E-03
 1.325120449E+00 2.690121997E-03
 1.327118635E+00 2.691104310E-03
 1.329104900E+00 2.692059847E-03
 1.331079125E+00 2.692989539E-03
 1.333041430E+00 2.693894086E-03
 1.334991932E+00 2.694774652E-03
 1.336930394E+00 2.695631934E-03
 1.338857174E+00 2.696466865E-03
 1.340772152E+00 2.697279910E-03