VARIABLES = "x","cp"
zone, t="CFL3D"
 -2.500000000E+01 1.267450163E-03
 -2.454554749E+01 1.267450163E-03
 -2.409935760E+01 1.267450163E-03
 -2.366127586E+01 1.267450163E-03
 -2.323115921E+01 1.267450163E-03
 -2.280886269E+01 1.267450163E-03
 -2.239424133E+01 1.267450163E-03
 -2.198715591E+01 1.267450163E-03
 -2.158747101E+01 1.267450163E-03
 -2.119505310E+01 1.267450163E-03
 -2.080976677E+01 1.267450163E-03
 -2.043148422E+01 1.267450163E-03
 -2.006007957E+01 1.267450163E-03
 -1.969542503E+01 1.267450163E-03
 -1.933740044E+01 1.267450163E-03
 -1.898588371E+01 1.267450163E-03
 -1.864075470E+01 1.267450163E-03
 -1.830190277E+01 1.267450163E-03
 -1.796920776E+01 1.267450163E-03
 -1.764256096E+01 1.267450163E-03
 -1.732185364E+01 1.267450163E-03
 -1.700697517E+01 1.267450163E-03
 -1.669782066E+01 1.267450163E-03
 -1.639428520E+01 1.267450163E-03
 -1.609626770E+01 1.267450163E-03
 -1.580366802E+01 1.267450163E-03
 -1.551638699E+01 1.267450163E-03
 -1.523432827E+01 1.267450163E-03
 -1.495739651E+01 1.267450163E-03
 -1.468549919E+01 1.267450163E-03
 -1.441854382E+01 1.267450163E-03
 -1.415644169E+01 1.267450163E-03
 -1.389910412E+01 1.267450163E-03
 -1.364644432E+01 1.267450163E-03
 -1.339837646E+01 1.267450163E-03
 -1.315481949E+01 1.267450163E-03
 -1.291568851E+01 1.267450163E-03
 -1.268090534E+01 1.267450163E-03
 -1.245038986E+01 1.267450163E-03
 -1.222406483E+01 1.267450163E-03
 -1.200185299E+01 1.270430395E-03
 -1.178368187E+01 1.270430395E-03
 -1.156947613E+01 1.270430395E-03
 -1.135916328E+01 1.270430395E-03
 -1.115267467E+01 1.270430395E-03
 -1.094993877E+01 1.270430395E-03
 -1.075088882E+01 1.270430395E-03
 -1.055545712E+01 1.273410628E-03
 -1.036357784E+01 1.273410628E-03
 -1.017518616E+01 1.273410628E-03
 -9.990220070E+00 1.273410628E-03
 -9.808614731E+00 1.276390860E-03
 -9.630311966E+00 1.276390860E-03
 -9.455249786E+00 1.276390860E-03
 -9.283370018E+00 1.279371092E-03
 -9.114614487E+00 1.279371092E-03
 -8.948925972E+00 1.282351324E-03
 -8.786250114E+00 1.282351324E-03
 -8.626531601E+00 1.285331557E-03
 -8.469716072E+00 1.285331557E-03
 -8.315751076E+00 1.288311789E-03
 -8.164585114E+00 1.291292021E-03
 -8.016166687E+00 1.291292021E-03
 -7.870445728E+00 1.294272253E-03
 -7.727374077E+00 1.297252486E-03
 -7.586903095E+00 1.300232718E-03
 -7.448986053E+00 1.303212950E-03
 -7.313575268E+00 1.306193182E-03
 -7.180626392E+00 1.309173414E-03
 -7.050094128E+00 1.315133879E-03
 -6.921934605E+00 1.318114111E-03
 -6.796104908E+00 1.321094343E-03
 -6.672562599E+00 1.327054808E-03
 -6.551265717E+00 1.333015272E-03
 -6.432173729E+00 1.335995505E-03
 -6.315246582E+00 1.341955969E-03
 -6.200444698E+00 1.347916434E-03
 -6.087729931E+00 1.353876898E-03
 -5.977064133E+00 1.362817595E-03
 -5.868409634E+00 1.368778059E-03
 -5.761730671E+00 1.374738524E-03
 -5.656990528E+00 1.383679220E-03
 -5.554154396E+00 1.392619917E-03
 -5.453187466E+00 1.401560614E-03
 -5.354055882E+00 1.410501311E-03
 -5.256726265E+00 1.419442007E-03
 -5.161166191E+00 1.428382704E-03
 -5.067342758E+00 1.440303633E-03
 -4.975224972E+00 1.449244330E-03
 -4.884781361E+00 1.461165259E-03
 -4.795981884E+00 1.473086188E-03
 -4.708796501E+00 1.487987349E-03
 -4.623196125E+00 1.499908278E-03
 -4.539151669E+00 1.514809439E-03
 -4.456634998E+00 1.526730368E-03
 -4.375617981E+00 1.541631529E-03
 -4.296073914E+00 1.559512923E-03
 -4.217975616E+00 1.574414084E-03
 -4.141296864E+00 1.592295477E-03
 -4.066011906E+00 1.607196638E-03
 -3.992095470E+00 1.628058264E-03
 -3.919522524E+00 1.645939657E-03
 -3.848268747E+00 1.663821051E-03
 -3.778310299E+00 1.684682677E-03
 -3.709623337E+00 1.705544302E-03
 -3.642184973E+00 1.726405928E-03
 -3.575972319E+00 1.750247786E-03
 -3.510963202E+00 1.774089644E-03
 -3.447135687E+00 1.797931502E-03
 -3.384468317E+00 1.821773360E-03
 -3.322940111E+00 1.848595450E-03
 -3.262530327E+00 1.875417540E-03
 -3.203218460E+00 1.902239630E-03
 -3.144984961E+00 1.929061720E-03
 -3.087809563E+00 1.958864043E-03
 -3.031673670E+00 1.988666365E-03
 -2.976557970E+00 2.018468687E-03
 -2.922444105E+00 2.051251242E-03
 -2.869313717E+00 2.084033797E-03
 -2.817149162E+00 2.116816351E-03
 -2.765932560E+00 2.152579138E-03
 -2.715646982E+00 2.188341925E-03
 -2.666275501E+00 2.224104712E-03
 -2.617801189E+00 2.262847731E-03
 -2.570208073E+00 2.301590750E-03
 -2.523479939E+00 2.340333769E-03
 -2.477601051E+00 2.379076788E-03
 -2.432555914E+00 2.420800040E-03
 -2.388329744E+00 2.465503523E-03
 -2.344907045E+00 2.510207007E-03
 -2.302273989E+00 2.554910490E-03
 -2.260415554E+00 2.599613974E-03
 -2.219317675E+00 2.647297690E-03
 -2.178966999E+00 2.694981406E-03
 -2.139349699E+00 2.745645354E-03
 -2.100452185E+00 2.796309302E-03
 -2.062261820E+00 2.846973250E-03
 -2.024765491E+00 2.900617430E-03
 -1.987950563E+00 2.954261610E-03
 -1.951804757E+00 3.010886023E-03
 -1.916315794E+00 3.067510435E-03
 -1.881471753E+00 3.127115080E-03
 -1.847261071E+00 3.186719725E-03
 -1.813671947E+00 3.246324370E-03
 -1.780693293E+00 3.308909247E-03
 -1.748314023E+00 3.371494124E-03
 -1.716523051E+00 3.434079001E-03
 -1.685309887E+00 3.502624342E-03
 -1.654663801E+00 3.568189451E-03
 -1.624574780E+00 3.636734793E-03
 -1.595032454E+00 3.708260367E-03
 -1.566026926E+00 3.779785940E-03
 -1.537548423E+00 3.851311514E-03
 -1.509587407E+00 3.925817553E-03
 -1.482134581E+00 4.000323359E-03
 -1.455180407E+00 4.077809397E-03
 -1.428716063E+00 4.155295435E-03
 -1.402732611E+00 4.235761706E-03
 -1.377221227E+00 4.316227976E-03
 -1.352173448E+00 4.399674479E-03
 -1.327580571E+00 4.483120982E-03
 -1.303434610E+00 4.566567484E-03
 -1.279727340E+00 4.655974451E-03
 -1.256450772E+00 4.742401186E-03
 -1.233597040E+00 4.831808154E-03
 -1.211158514E+00 4.924195353E-03
 -1.189127684E+00 5.016582552E-03
 -1.167496920E+00 5.111949984E-03
 -1.146259189E+00 5.207317416E-03
 -1.125407219E+00 5.302684847E-03
 -1.104933977E+00 5.401032511E-03
 -1.084832668E+00 5.502360407E-03
 -1.065096498E+00 5.603688303E-03
 -1.045718670E+00 5.705016199E-03
 -1.026692867E+00 5.809324328E-03
 -1.008012652E+00 5.916612688E-03
 -9.896716475E-01 5.967276637E-03
 -9.716637135E-01 6.131189410E-03
 -9.539828300E-01 6.241458002E-03
 -9.366229773E-01 6.351726595E-03
 -9.195784330E-01 6.464975420E-03
 -9.028432965E-01 6.578224245E-03
 -8.864120841E-01 6.694453303E-03
 -8.702791333E-01 6.813662592E-03
 -8.544391394E-01 6.929891650E-03
 -8.388866782E-01 7.049100939E-03
 -8.236165643E-01 7.171290461E-03
 -8.086236715E-01 7.293479983E-03
 -7.939029336E-01 7.418649737E-03
 -7.794493437E-01 7.543819491E-03
 -7.652581334E-01 7.668989245E-03
 -7.513244748E-01 7.797139231E-03
 -7.376436591E-01 7.925288752E-03
 -7.242110968E-01 8.056418970E-03
 -7.110222578E-01 8.187549189E-03
 -6.980727911E-01 8.321659639E-03
 -6.853582263E-01 8.452789858E-03
 -6.728742719E-01 8.589880541E-03
 -6.606168747E-01 8.726971224E-03
 -6.485817432E-01 8.864061907E-03
 -6.367649436E-01 9.001152590E-03
 -6.251624227E-01 9.141223505E-03
 -6.137703061E-01 9.281294420E-03
 -6.025847793E-01 9.424345568E-03
 -5.916020870E-01 9.567396715E-03
 -5.808184743E-01 9.710447863E-03
 -5.702303052E-01 9.853499010E-03
 -5.598340631E-01 9.999530390E-03
 -5.496262908E-01 1.014854200E-02
 -5.396034718E-01 1.029457338E-02
 -5.297622681E-01 1.044358499E-02
 -5.200993419E-01 1.059259661E-02
 -5.106114745E-01 1.074160822E-02
 -5.012954473E-01 1.089360006E-02
 -4.921481311E-01 1.104559191E-02
 -4.831664860E-01 1.119758375E-02
 -4.743474126E-01 1.134957559E-02
 -4.656880200E-01 1.150454767E-02
 -4.571853280E-01 1.165951975E-02
 -4.488365352E-01 1.181449182E-02
 -4.406387806E-01 1.196946390E-02
 -4.325893521E-01 1.212741621E-02
 -4.246855080E-01 1.228238828E-02
 -4.169245660E-01 1.244034059E-02
 -4.093039930E-01 1.259829290E-02
 -4.018211365E-01 1.275624521E-02
 -3.944735229E-01 1.291717775E-02
 -3.872586787E-01 1.307513006E-02
 -3.801741898E-01 1.323606260E-02
 -3.732176125E-01 1.339699514E-02
 -3.663866818E-01 1.355494745E-02
 -3.596790433E-01 1.371587999E-02
 -3.530924618E-01 1.387681253E-02
 -3.466247022E-01 1.403774507E-02
 -3.402736187E-01 1.419867761E-02
 -3.340370655E-01 1.436259039E-02
 -3.279129267E-01 1.452352293E-02
 -3.218991458E-01 1.468445547E-02
 -3.159936965E-01 1.484836824E-02
 -3.101946115E-01 1.500930078E-02
 -3.044999242E-01 1.517023332E-02
 -2.989077270E-01 1.533414610E-02
 -2.934161127E-01 1.549507864E-02
 -2.880232632E-01 1.565899141E-02
 -2.827273309E-01 1.581992395E-02
 -2.775265872E-01 1.598085649E-02
 -2.724192142E-01 1.614476927E-02
 -2.674035430E-01 1.630570181E-02
 -2.624778748E-01 1.646663435E-02
 -2.576405406E-01 1.662756689E-02
 -2.528899014E-01 1.679147966E-02
 -2.482243925E-01 1.695241220E-02
 -2.436424345E-01 1.711334474E-02
 -2.391424626E-01 1.727427728E-02
 -2.347229719E-01 1.743222959E-02
 -2.303824872E-01 1.759316213E-02
 -2.261195332E-01 1.775409468E-02
 -2.219326943E-01 1.791204698E-02
 -2.178205401E-01 1.807297952E-02
 -2.137816995E-01 1.823093183E-02
 -2.098148018E-01 1.838888414E-02
 -2.059185207E-01 1.854683645E-02
 -2.020915598E-01 1.870478876E-02
 -1.983325928E-01 1.886274107E-02
 -1.946403831E-01 1.901771314E-02
 -1.910136938E-01 1.917566545E-02
 -1.874512732E-01 1.933063753E-02
 -1.839519590E-01 1.948560961E-02
 -1.805145442E-01 1.964058168E-02
 -1.771378815E-01 1.979555376E-02
 -1.738208532E-01 1.995052584E-02
 -1.705623120E-01 2.010251768E-02
 -1.673611701E-01 2.025748976E-02
 -1.642163694E-01 2.040948160E-02
 -1.611268222E-01 2.056147344E-02
 -1.580915153E-01 2.071346529E-02
 -1.551094055E-01 2.086247690E-02
 -1.521795094E-01 2.101446874E-02
 -1.493008286E-01 2.116348036E-02
 -1.464723945E-01 2.131249197E-02
 -1.436932534E-01 2.146150358E-02
 -1.409624815E-01 2.161051519E-02
 -1.382791400E-01 2.175952680E-02
 -1.356423497E-01 2.190555818E-02
 -1.330512166E-01 2.205158956E-02
 -1.305048466E-01 2.219762094E-02
 -1.280024052E-01 2.234365232E-02
 -1.255430430E-01 2.248968370E-02
 -1.231259406E-01 2.263273485E-02
 -1.207502708E-01 2.277876623E-02
 -1.184152439E-01 2.292181738E-02
 -1.161200702E-01 2.306486852E-02
 -1.138639748E-01 2.320493944E-02
 -1.116462052E-01 2.334799059E-02
 -1.094660088E-01 2.348806150E-02
 -1.073226556E-01 2.363111265E-02
 -1.052154228E-01 2.377118357E-02
 -1.031436026E-01 2.391125448E-02
 -1.011064947E-01 2.405132540E-02
 -9.910341352E-02 2.418841608E-02
 -9.713368863E-02 2.432848699E-02
 -9.519665688E-02 2.446557768E-02
 -9.329166263E-02 2.460564859E-02
 -9.141806513E-02 2.474273928E-02
 -8.957523853E-02 2.487982996E-02
 -8.776255697E-02 2.501692064E-02
 -8.597940952E-02 2.515103109E-02
 -8.422520012E-02 2.528812177E-02
 -8.249934018E-02 2.542521246E-02
 -8.080124855E-02 2.555932291E-02
 -7.913035154E-02 2.569343336E-02
 -7.748608291E-02 2.583052404E-02
 -7.586789131E-02 2.596463449E-02
 -7.427524030E-02 2.609874494E-02
 -7.270757854E-02 2.623285539E-02
 -7.116439939E-02 2.636696585E-02
 -6.964515895E-02 2.650405653E-02
 -6.814936548E-02 2.663816698E-02
 -6.667650491E-02 2.677227743E-02
 -6.522608548E-02 2.690638788E-02
 -6.379762292E-02 2.704049833E-02
 -6.239062548E-02 2.717460878E-02
 -6.100463122E-02 2.730871923E-02
 -5.963916704E-02 2.744282968E-02
 -5.829377472E-02 2.757992037E-02
 -5.696799979E-02 2.771403082E-02
 -5.566140264E-02 2.785112150E-02
 -5.437353626E-02 2.798523195E-02
 -5.310396850E-02 2.812232263E-02
 -5.185227469E-02 2.825941332E-02
 -5.061803013E-02 2.839650400E-02
 -4.940082505E-02 2.853657492E-02
 -4.820024595E-02 2.867366560E-02
 -4.701588675E-02 2.881373651E-02
 -4.584735259E-02 2.895380743E-02
 -4.469424859E-02 2.909685858E-02
 -4.355618730E-02 2.923692949E-02
 -4.243278503E-02 2.938296087E-02
 -4.132366180E-02 2.952601202E-02
 -4.022844881E-02 2.967204340E-02
 -3.914677724E-02 2.982105501E-02
 -3.807827830E-02 2.997006662E-02
 -3.702259436E-02 3.011907823E-02
 -3.597937152E-02 3.027405031E-02
 -3.494825587E-02 3.042604215E-02
 -3.392890468E-02 3.058399446E-02
 -3.292097151E-02 3.074492700E-02
 -3.192412108E-02 3.090585954E-02
 -3.093801253E-02 3.106977232E-02
 -2.996231616E-02 3.123666532E-02
 -2.899670415E-02 3.140952066E-02
 -2.804085240E-02 3.158237413E-02
 -2.709443681E-02 3.167178109E-02
 -2.615714073E-02 3.194298223E-02
 -2.522864752E-02 3.213073686E-02
 -2.430864610E-02 3.232445195E-02
 -2.339682542E-02 3.252114728E-02
 -2.249288000E-02 3.272678331E-02
 -2.159650251E-02 3.293539956E-02
 -2.070739679E-02 3.315593675E-02
 -1.982525736E-02 3.338243440E-02
 -1.894979179E-02 3.361787274E-02
 -1.808070391E-02 3.386225179E-02
 -1.721770130E-02 3.412153199E-02
 -1.636049338E-02 3.438975289E-02
 -1.550879143E-02 3.467585519E-02
 -1.466230955E-02 3.497685865E-02
 -1.382076181E-02 3.529872373E-02
 -1.298386604E-02 3.564145043E-02
 -1.215134002E-02 3.601099923E-02
 -1.132290438E-02 3.641035035E-02
 -1.049827877E-02 3.684844449E-02
 -9.677186608E-03 3.732826188E-02
 -8.859351277E-03 3.785874322E-02
 -8.044498041E-03 3.845776990E-02
 -7.232351694E-03 3.913726285E-02
 -6.422639824E-03 3.994490579E-02
 -5.615089089E-03 4.092838243E-02
 -4.809428938E-03 4.209067300E-02
 -4.005386960E-03 4.335131124E-02
 -3.202693071E-03 4.487420991E-02
 -2.401077189E-03 4.811074212E-02
 -1.600269228E-03 5.674745515E-02
 -7.999999798E-04 7.027770579E-02
 2.780639759E-16 6.340827048E-02
 7.999999798E-04 3.468181565E-02
 1.606264967E-03 2.327050455E-02
 2.418837277E-03 2.596165426E-02
 3.237759229E-03 2.645935304E-02
 4.063073546E-03 2.811636217E-02
 4.894822836E-03 2.934719808E-02
 5.733050406E-03 3.024722822E-02
 6.577799562E-03 3.074492700E-02
 7.429112680E-03 3.098930605E-02
 8.287033997E-03 3.107573278E-02
 9.151606821E-03 3.108467348E-02
 1.002287492E-02 3.106083162E-02
 1.090088207E-02 3.102506883E-02
 1.178567298E-02 3.099228628E-02
 1.267729141E-02 3.096546419E-02
 1.357578207E-02 3.094758280E-02
 1.448118873E-02 3.093268164E-02
 1.539355703E-02 3.092076071E-02
 1.631293073E-02 3.091182001E-02
 1.723935641E-02 3.090585954E-02
 1.817287691E-02 3.089989908E-02
 1.911354065E-02 3.089691885E-02
 2.006139047E-02 3.089691885E-02
 2.101647109E-02 3.090287931E-02
 2.197883092E-02 3.091182001E-02
 2.294851467E-02 3.092076071E-02
 2.392556891E-02 3.093566187E-02
 2.491003834E-02 3.095652349E-02
 2.590196952E-02 3.097738512E-02
 2.690140903E-02 3.100122698E-02
 2.790840343E-02 3.102804907E-02
 2.892299928E-02 3.106083162E-02
 2.994524129E-02 3.109361418E-02
 3.097517975E-02 3.112937696E-02
 3.201285750E-02 3.116811998E-02
 3.305832669E-02 3.120686300E-02
 3.411163017E-02 3.125156835E-02
 3.517281637E-02 3.129627183E-02
 3.624192998E-02 3.134395555E-02
 3.731902316E-02 3.139461949E-02
 3.840414062E-02 3.144528344E-02
 3.949733078E-02 3.149892762E-02
 4.059864208E-02 3.155555204E-02
 4.170811921E-02 3.161217645E-02
 4.282581061E-02 3.167178109E-02
 4.395176470E-02 3.173436597E-02
 4.508602992E-02 3.179993108E-02
 4.622865468E-02 3.186549619E-02
 4.737968370E-02 3.193404153E-02
 4.853916913E-02 3.200258687E-02
 4.970715567E-02 3.207411245E-02
 5.088369548E-02 3.214861825E-02
 5.206883326E-02 3.222312406E-02
 5.326262116E-02 3.230061010E-02
 5.446510017E-02 3.238107637E-02
 5.567632616E-02 3.246154264E-02
 5.689634383E-02 3.254498914E-02
 5.812519789E-02 3.263141587E-02
 5.936294422E-02 3.271784261E-02
 6.060962752E-02 3.280724958E-02
 6.186529621E-02 3.289963678E-02
 6.312999874E-02 3.299202397E-02
 6.440377980E-02 3.308739141E-02
 6.568669528E-02 3.318573907E-02
 6.697878242E-02 3.328408673E-02
 6.828010082E-02 3.338541463E-02
 6.959069520E-02 3.348972276E-02
 7.091061771E-02 3.359403089E-02
 7.223990560E-02 3.370131925E-02
 7.357861102E-02 3.381158784E-02
 7.492678612E-02 3.392483667E-02
 7.628447562E-02 3.403808549E-02
 7.765173167E-02 3.415431455E-02
 7.902859896E-02 3.427352384E-02
 8.041512221E-02 3.439571336E-02
 8.181135356E-02 3.451790288E-02
 8.321733773E-02 3.464605287E-02
 8.463312685E-02 3.477420285E-02
 8.605875820E-02 3.490235284E-02
 8.749429882E-02 3.503646329E-02
 8.893977106E-02 3.517355397E-02
 9.039524198E-02 3.531064466E-02
 9.186074883E-02 3.545071557E-02
 9.333634377E-02 3.559376672E-02
 9.482206404E-02 3.573979810E-02
 9.631796926E-02 3.588880971E-02
 9.782408923E-02 3.604080155E-02
 9.934049100E-02 3.619279340E-02
 1.008672044E-01 3.635074571E-02
 1.024042815E-01 3.651167825E-02
 1.039517671E-01 3.667261079E-02
 1.055097058E-01 3.683950379E-02
 1.070781425E-01 3.700639680E-02
 1.086571217E-01 3.717925027E-02
 1.102466956E-01 3.735508397E-02
 1.118469015E-01 3.753091767E-02
 1.134577915E-01 3.771271184E-02
 1.150793955E-01 3.789748624E-02
 1.167117655E-01 3.808524087E-02
 1.183549538E-01 3.827895597E-02
 1.200089902E-01 3.847267106E-02
 1.216739267E-01 3.867234662E-02
 1.233498007E-01 3.887202218E-02
 1.250366569E-01 3.907765821E-02
 1.267345399E-01 3.928925470E-02
 1.284434944E-01 3.950085118E-02
 1.301635504E-01 3.971840814E-02
 1.318947524E-01 3.994192556E-02
 1.336371601E-01 4.016544297E-02
 1.353907883E-01 4.039492086E-02
 1.371556818E-01 4.063035920E-02
 1.389319003E-01 4.086877778E-02
 1.407194734E-01 4.111315683E-02
 1.425184160E-01 4.136051610E-02
 1.443288028E-01 4.161085561E-02
 1.461506635E-01 4.186715558E-02
 1.479840279E-01 4.212941602E-02
 1.498289257E-01 4.239763692E-02
 1.516854167E-01 4.266883805E-02
 1.535535157E-01 4.294599965E-02
 1.554332823E-01 4.322912171E-02
 1.573247313E-01 4.351522401E-02
 1.592279077E-01 4.381026700E-02
 1.611428410E-01 4.410829023E-02
 1.630695611E-01 4.441525415E-02
 1.650081277E-01 4.472519830E-02
 1.669585407E-01 4.504110292E-02
 1.689208597E-01 4.536594823E-02
 1.708951145E-01 4.569675401E-02
 1.728813201E-01 4.603352025E-02
 1.748795062E-01 4.637624696E-02
 1.768897325E-01 4.672791436E-02
 1.789119989E-01 4.708554223E-02
 1.809463501E-01 4.744913056E-02
 1.829928160E-01 4.782165959E-02
 1.850514114E-01 4.820312932E-02
 1.871221811E-01 4.859055951E-02
 1.892051548E-01 4.898693040E-02
 1.913003325E-01 4.939224198E-02
 1.934077740E-01 4.980649427E-02
 1.955274791E-01 5.022968724E-02
 1.976594776E-01 5.066182092E-02
 1.998037994E-01 5.110587552E-02
 2.019604743E-01 5.178834870E-02
 2.041295022E-01 5.201782659E-02
 2.063109279E-01 5.248572305E-02
 2.085047662E-01 5.296554044E-02
 2.107110322E-01 5.346025899E-02
 2.129297554E-01 5.396391824E-02
 2.151609361E-01 5.447651818E-02
 2.174046040E-01 5.500401929E-02
 2.196607888E-01 5.554344133E-02
 2.219294906E-01 5.609776452E-02
 2.242107242E-01 5.666400865E-02
 2.265045196E-01 5.724217370E-02
 2.288108766E-01 5.783523992E-02
 2.311298251E-01 5.844320729E-02
 2.334613651E-01 5.906607583E-02
 2.358054966E-01 5.970384553E-02
 2.381622493E-01 6.035949662E-02
 2.405316383E-01 6.103004888E-02
 2.429136485E-01 6.171848252E-02
 2.453083098E-01 6.242479756E-02
 2.477156222E-01 6.315197051E-02
 2.501356006E-01 6.389702857E-02
 2.525682449E-01 6.465996802E-02
 2.550135255E-01 6.544674933E-02
 2.574715018E-01 6.625439227E-02
 2.599421442E-01 6.708587706E-02
 2.624254823E-01 6.794120371E-02
 2.649214864E-01 6.882037222E-02
 2.674301565E-01 6.972636282E-02
 2.699515224E-01 7.065619528E-02
 2.724855542E-01 7.161881030E-02
 2.750322521E-01 7.260824740E-02
 2.775916159E-01 7.363046706E-02
 2.801636457E-01 7.468546927E-02
 2.827483416E-01 7.577623427E-02
 2.853456736E-01 7.690276206E-02
 2.879556417E-01 7.806803286E-02
 2.905782461E-01 7.927502692E-02
 2.932134569E-01 8.052374423E-02
 2.958613038E-01 8.182312548E-02
 2.985217273E-01 8.317019045E-02
 3.011947274E-01 8.457387984E-02
 3.038803041E-01 8.603419363E-02
 3.065784574E-01 8.756007254E-02
 3.092890978E-01 8.915151656E-02
 3.120122850E-01 9.081448615E-02
 3.147479594E-01 9.254898131E-02
 3.174961209E-01 9.435500205E-02
 3.202567399E-01 9.623552859E-02
 3.230297565E-01 9.819056094E-02
 3.258152306E-01 1.002171189E-01
 3.286130428E-01 1.023181826E-01
 3.314232230E-01 1.044907719E-01
 3.342457414E-01 1.067319065E-01
 3.370805681E-01 1.090415865E-01
 3.399276435E-01 1.114138514E-01
 3.427869678E-01 1.138487011E-01
 3.456584811E-01 1.163401753E-01
 3.485421836E-01 1.188942343E-01
 3.514380157E-01 1.214929968E-01
 3.543459177E-01 1.241334826E-01
 3.572659194E-01 1.268156916E-01
 3.601979017E-01 1.295396239E-01
 3.631418645E-01 1.322933584E-01
 3.660977483E-01 1.350590140E-01
 3.690654933E-01 1.378425509E-01
 3.720450699E-01 1.406588703E-01
 3.750364482E-01 1.434602886E-01
 3.780395389E-01 1.462468058E-01
 3.810542822E-01 1.490571648E-01
 3.840806186E-01 1.518258005E-01
 3.871185184E-01 1.545616537E-01
 3.901678622E-01 1.572945267E-01
 3.932286203E-01 1.599439532E-01
 3.963007331E-01 1.625874192E-01
 3.993840814E-01 1.651474386E-01
 4.024785757E-01 1.676359326E-01
 4.055841863E-01 1.700707823E-01
 4.087007940E-01 1.723983437E-01
 4.118283093E-01 1.746543795E-01
 4.149666429E-01 1.767941862E-01
 4.181156456E-01 1.788356453E-01
 4.212752879E-01 1.807549149E-01
 4.244453907E-01 1.825400740E-01
 4.276258647E-01 1.842060238E-01
 4.308166206E-01 1.857021004E-01
 4.340174794E-01 1.870759875E-01
 4.372283220E-01 1.882561594E-01
 4.404490292E-01 1.892843395E-01
 4.436794519E-01 1.901396662E-01
 4.469194710E-01 1.907595545E-01
 4.501688778E-01 1.912542731E-01
 4.534275532E-01 1.914807707E-01
 4.566953778E-01 1.915195137E-01
 4.599721134E-01 1.913556010E-01
 4.632576406E-01 1.908936650E-01
 4.665518105E-01 1.902648360E-01
 4.698544145E-01 1.893677860E-01
 4.731652737E-01 1.881578118E-01
 4.764842689E-01 1.867511421E-01
 4.798111618E-01 1.850613505E-01
 4.831458032E-01 1.830407530E-01
 4.864880145E-01 1.807549149E-01
 4.898376465E-01 1.782068163E-01
 4.931944907E-01 1.753130108E-01
 4.965583980E-01 1.720794588E-01
 4.999292195E-01 1.685717255E-01
 5.033067465E-01 1.647361666E-01
 5.066908002E-01 1.605280787E-01
 5.100812912E-01 1.559713036E-01
 5.134780407E-01 1.510777622E-01
 5.168808699E-01 1.458534151E-01
 5.202897191E-01 1.402326971E-01
 5.237043500E-01 1.342096478E-01
 5.271247625E-01 1.278408915E-01
 5.305507779E-01 1.210787445E-01
 5.339823365E-01 1.139530092E-01
 5.374191999E-01 1.063981205E-01
 5.408614874E-01 9.842301905E-02
 5.443089604E-01 9.006644785E-02
 5.477616787E-01 8.129562438E-02
 5.512195230E-01 7.211054862E-02
 5.546824932E-01 6.252016127E-02
 5.581504703E-01 5.249168351E-02
 5.616235137E-01 4.202510789E-02
 5.651015639E-01 3.115023859E-02
 5.685847402E-01 1.985217817E-02
 5.720728636E-01 8.127944544E-03
 5.755661130E-01 -4.019481596E-03
 5.790644884E-01 -1.659010164E-02
 5.825679898E-01 -2.957795374E-02
 5.860767365E-01 -4.298899695E-02
 5.895906687E-01 -5.680833384E-02
 5.931099653E-01 -7.103000581E-02
 5.966346264E-01 -8.564506471E-02
 6.001648307E-01 -1.006475538E-01
 6.037005186E-01 -1.160285324E-01
 6.072419286E-01 -1.317730993E-01
 6.107890606E-01 -1.478663534E-01
 6.143419743E-01 -1.642933935E-01
 6.179008484E-01 -1.810393184E-01
 6.214657426E-01 -1.980802864E-01
 6.250367761E-01 -2.153984159E-01
 6.286140084E-01 -2.329668850E-01
 6.321974993E-01 -2.507588565E-01
 6.357874274E-01 -2.687475383E-01
 6.393837333E-01 -2.869001329E-01
 6.429865360E-01 -3.051838577E-01
 6.465959549E-01 -3.235599697E-01
 6.502119303E-01 -3.419927061E-01
 6.538345814E-01 -3.604373634E-01
 6.574639082E-01 -3.788492382E-01
 6.610997915E-01 -3.971836269E-01
 6.647424102E-01 -4.153928459E-01
 6.683915854E-01 -4.334232509E-01
 6.720473170E-01 -4.512241781E-01
 6.757094860E-01 -4.687360227E-01
 6.793780923E-01 -4.859021604E-01
 6.830529571E-01 -5.026689768E-01
 6.867339015E-01 -5.189768076E-01
 6.904208660E-01 -5.347630978E-01
 6.941135526E-01 -5.499622822E-01
 6.978118420E-01 -5.645534992E-01
 7.015154362E-01 -5.783787966E-01
 7.052240968E-01 -5.913934708E-01
 7.089375854E-01 -6.036273241E-01
 7.126555443E-01 -6.149790287E-01
 7.163776159E-01 -6.254038811E-01
 7.201035023E-01 -6.348452568E-01
 7.238328457E-01 -6.432882547E-01
 7.275652289E-01 -6.506464481E-01
 7.313002348E-01 -6.568095684E-01
 7.350375056E-01 -6.618282795E-01
 7.387765050E-01 -6.657204628E-01
 7.425169349E-01 -6.684265137E-01
 7.462582588E-01 -6.699255705E-01
 7.500000000E-01 -6.703696251E-01
 7.537417412E-01 -6.693682671E-01
 7.574830651E-01 -6.671271324E-01
 7.612234950E-01 -6.637803316E-01
 7.649624944E-01 -6.592533588E-01
 7.686997652E-01 -6.535819769E-01
 7.724347711E-01 -6.468198299E-01
 7.761671543E-01 -6.389549971E-01
 7.798964977E-01 -6.299695969E-01
 7.836223841E-01 -6.199887991E-01
 7.873444557E-01 -6.090960503E-01
 7.910624146E-01 -5.973092318E-01
 7.947759032E-01 -5.846879482E-01
 7.984845638E-01 -5.712828636E-01
 8.021881580E-01 -5.571923256E-01
 8.058864474E-01 -5.424044132E-01
 8.095791340E-01 -5.269757509E-01
 8.132660985E-01 -5.110583305E-01
 8.169470429E-01 -4.946729839E-01
 8.206219077E-01 -4.778912961E-01
 8.242905140E-01 -4.607639015E-01
 8.279526830E-01 -4.433593452E-01
 8.316084146E-01 -4.257312715E-01
 8.352575898E-01 -4.079333246E-01
 8.389002085E-01 -3.900251091E-01
 8.425360918E-01 -3.720572889E-01
 8.461654186E-01 -3.540775478E-01
 8.497880697E-01 -3.361305892E-01
 8.534040451E-01 -3.182640970E-01
 8.570134640E-01 -3.005168140E-01
 8.606162667E-01 -2.829274833E-01
 8.642125726E-01 -2.655318677E-01
 8.678025007E-01 -2.483597845E-01
 8.713859916E-01 -2.314439863E-01
 8.749632239E-01 -2.148053497E-01
 8.785342574E-01 -1.984736770E-01
 8.820991516E-01 -1.824698299E-01
 8.856580257E-01 -1.668057293E-01
 8.892109394E-01 -1.515022367E-01
 8.927580714E-01 -1.365742534E-01
 8.962994814E-01 -1.220277399E-01
 8.998351693E-01 -1.078746170E-01
 9.033653736E-01 -9.412382543E-02
 9.068900347E-01 -8.077834547E-02
 9.104093313E-01 -6.784115732E-02
 9.139232635E-01 -5.531523749E-02
 9.174320102E-01 -4.319761321E-02
 9.209355116E-01 -3.149126098E-02
 9.244338870E-01 -2.019916289E-02
 9.279271364E-01 -9.312374517E-03
 9.314152598E-01 1.175062964E-03
 9.348984361E-01 1.126314886E-02
 9.383764863E-01 2.096380480E-02
 9.418495297E-01 3.027107008E-02
 9.453175068E-01 3.921176866E-02
 9.487804770E-01 4.777695611E-02
 9.522383213E-01 5.596067384E-02
 9.556910396E-01 6.379272044E-02
 9.591385126E-01 7.127608359E-02
 9.625808001E-01 7.840777934E-02
 9.660176635E-01 8.522357047E-02
 9.694492221E-01 9.169961512E-02
 9.728752375E-01 9.783293307E-02
 9.762956500E-01 1.036652476E-01
 9.797102809E-01 1.091816574E-01
 9.831191301E-01 1.144209057E-01
 9.865219593E-01 1.193531901E-01
 9.899187088E-01 1.239755303E-01
 9.933091998E-01 1.283266693E-01
 9.966932535E-01 1.324125677E-01
 1.000070810E+00 1.362302452E-01
 1.003441572E+00 1.397648007E-01
 1.006805539E+00 1.430311352E-01
 1.010162354E+00 1.460769325E-01
 1.013512015E+00 1.488664299E-01
 1.016854167E+00 1.513847262E-01
 1.020188808E+00 1.536824852E-01
 1.023515701E+00 1.557686478E-01
 1.026834726E+00 1.576014906E-01
 1.030145645E+00 1.591959149E-01
 1.033448219E+00 1.606204659E-01
 1.036742330E+00 1.618036181E-01
 1.040027857E+00 1.627602726E-01
 1.043304682E+00 1.635679156E-01
 1.046572447E+00 1.641341597E-01
 1.049831152E+00 1.645215899E-01
 1.053080559E+00 1.647451073E-01
 1.056320548E+00 1.647480875E-01
 1.059551001E+00 1.646229178E-01
 1.062771678E+00 1.643010527E-01
 1.065982580E+00 1.638212353E-01
 1.069183350E+00 1.631983668E-01
 1.072374105E+00 1.624056250E-01
 1.075554609E+00 1.614936739E-01
 1.078724742E+00 1.604297310E-01
 1.081884384E+00 1.592465788E-01
 1.085033417E+00 1.579352766E-01
 1.088171721E+00 1.565077454E-01
 1.091299176E+00 1.549788862E-01
 1.094415784E+00 1.533397585E-01
 1.097521424E+00 1.516201645E-01
 1.100615978E+00 1.497962624E-01
 1.103699327E+00 1.479127556E-01
 1.106771350E+00 1.459487826E-01
 1.109832168E+00 1.439043432E-01
 1.112881541E+00 1.418330818E-01
 1.115919352E+00 1.396813542E-01
 1.118945718E+00 1.375057846E-01
 1.121960521E+00 1.352944523E-01
 1.124963522E+00 1.330324560E-01
 1.127954960E+00 1.307704598E-01
 1.130934477E+00 1.284876019E-01
 1.133902311E+00 1.261809021E-01
 1.136858106E+00 1.238861233E-01
 1.139802098E+00 1.215943247E-01
 1.142734051E+00 1.193025261E-01
 1.145654082E+00 1.170226485E-01
 1.148561954E+00 1.147695929E-01
 1.151457787E+00 1.125403792E-01
 1.154341459E+00 1.103350073E-01
 1.157212973E+00 1.081624180E-01
 1.160072327E+00 1.060285717E-01
 1.162919402E+00 1.039334685E-01
 1.165754199E+00 1.018830687E-01
 1.168576717E+00 9.988035262E-02
 1.171386957E+00 9.792234004E-02
 1.174184799E+00 9.601797163E-02
 1.176970243E+00 9.416724741E-02
 1.179743290E+00 9.237016737E-02
 1.182503939E+00 9.062673151E-02
 1.185252070E+00 8.893992007E-02
 1.187987685E+00 8.730973303E-02
 1.190710902E+00 8.573319018E-02
 1.193421602E+00 8.421327174E-02
 1.196119666E+00 8.274401724E-02
 1.198805213E+00 8.132840693E-02
 1.201478243E+00 7.996048033E-02
 1.204138756E+00 7.864023745E-02
 1.206786513E+00 7.736171782E-02
 1.209421754E+00 7.612492144E-02
 1.212044358E+00 7.492388785E-02
 1.214654326E+00 7.375861704E-02
 1.217251658E+00 7.262910903E-02
 1.219836354E+00 7.153238356E-02
 1.222408414E+00 7.046844065E-02
 1.224967718E+00 6.943131983E-02
 1.227514505E+00 6.842400134E-02
 1.230048537E+00 6.744350493E-02
 1.232569814E+00 6.649281085E-02
 1.235078573E+00 6.556297839E-02
 1.237574458E+00 6.465996802E-02
 1.240057826E+00 6.377781928E-02
 1.242528439E+00 6.291951239E-02
 1.244986415E+00 6.208207086E-02
 1.247431755E+00 6.126548722E-02
 1.249864459E+00 6.046976522E-02
 1.252284408E+00 5.969192460E-02
 1.254691720E+00 5.893494561E-02
 1.257086396E+00 5.819286779E-02
 1.259468317E+00 5.746867135E-02
 1.261837721E+00 5.676235631E-02
 1.264194489E+00 5.607094243E-02
 1.266538620E+00 5.539740995E-02
 1.268870234E+00 5.473579839E-02
 1.271189094E+00 5.409206823E-02
 1.273495436E+00 5.346025899E-02
 1.275789261E+00 5.284037068E-02
 1.278070450E+00 5.223538354E-02
 1.280339241E+00 5.164529756E-02
 1.282595396E+00 5.106415227E-02
 1.284839034E+00 5.049790815E-02
 1.287070274E+00 4.994060472E-02
 1.289288998E+00 4.939522222E-02
 1.291495204E+00 4.886176065E-02
 1.293689013E+00 4.833723977E-02
 1.295870543E+00 4.782165959E-02
 1.298039556E+00 4.706468061E-02
 1.300196171E+00 4.682328179E-02
 1.302340508E+00 4.634644464E-02
 1.304472566E+00 4.587258771E-02
 1.306592226E+00 4.540767148E-02
 1.308699608E+00 4.495169595E-02
 1.310794830E+00 4.450466111E-02
 1.312877774E+00 4.406656697E-02
 1.314948559E+00 4.363443330E-02
 1.317007184E+00 4.321124032E-02
 1.319053650E+00 4.279400781E-02
 1.321087956E+00 4.238571599E-02
 1.323110223E+00 4.198338464E-02