VARIABLES = "y", "u", "v", "P", "T", "nuT", "yplus", "uplus"
ZONE t="turbulent profile"
9.70411804e-01	5.15829999e+02	-3.43135177e-16	1.27804500e+04	1.65521143e+02	4.62489983e-06	2.31622243e+05	2.46220315e+01	9.12986334e-01	5.15829999e+02	-2.77664985e-16	1.27804500e+04	1.65521143e+02	4.62489981e-06	2.17915674e+05	2.46220315e+01	8.58959096e-01	5.15830001e+02	-3.71071989e-16	1.27804498e+04	1.65521142e+02	4.62489980e-06	2.05020210e+05	2.46220316e+01	8.08128996e-01	5.15830002e+02	-1.16107338e-15	1.27804498e+04	1.65521142e+02	4.62489978e-06	1.92887854e+05	2.46220316e+01	7.60306837e-01	5.15829986e+02	-3.37070716e-16	1.27804518e+04	1.65521149e+02	4.62489979e-06	1.81473447e+05	2.46220309e+01	7.15314621e-01	5.15829961e+02	4.32018126e-16	1.27804555e+04	1.65521163e+02	4.62489981e-06	1.70734503e+05	2.46220297e+01	6.72984883e-01	5.15830069e+02	-7.23838977e-16	1.27804404e+04	1.65521107e+02	4.62489990e-06	1.60631051e+05	2.46220348e+01	6.33160065e-01	5.15830489e+02	-1.50711383e-16	1.27803821e+04	1.65520892e+02	4.62490043e-06	1.51125485e+05	2.46220549e+01	5.95691936e-01	5.15830321e+02	2.47137762e-17	1.27804055e+04	1.65520978e+02	4.62490080e-06	1.42182424e+05	2.46220469e+01	5.60441037e-01	5.15826954e+02	-3.95916963e-16	1.27808723e+04	1.65522705e+02	4.62490336e-06	1.33768581e+05	2.46218862e+01	5.27276158e-01	5.15821863e+02	3.32794341e-16	1.27815788e+04	1.65525320e+02	4.62491009e-06	1.25852639e+05	2.46216431e+01	4.96073857e-01	5.15831353e+02	1.73666551e-16	1.27802620e+04	1.65520446e+02	4.62491482e-06	1.18405134e+05	2.46220961e+01	4.66717996e-01	5.15875296e+02	3.25446856e-17	1.27741650e+04	1.65497884e+02	4.62494242e-06	1.11398345e+05	2.46241937e+01	4.39099308e-01	5.15922475e+02	-1.42819536e-16	1.27676197e+04	1.65473656e+02	4.62499270e-06	1.04806193e+05	2.46264456e+01	4.13114995e-01	5.15855899e+02	3.05127502e-16	1.27768798e+04	1.65508069e+02	4.62501743e-06	9.86041402e+04	2.46232678e+01	3.88668340e-01	5.15563452e+02	3.28712518e-16	1.28175184e+04	1.65658691e+02	4.62507799e-06	9.27691029e+04	2.46093084e+01	3.65668350e-01	5.15099954e+02	-1.01840715e-16	1.28817394e+04	1.65895184e+02	4.62518440e-06	8.72793621e+04	2.45871844e+01	3.44029416e-01	5.14704042e+02	-3.05976082e-17	1.29367126e+04	1.66097440e+02	4.62522700e-06	8.21144843e+04	2.45682864e+01	3.23670996e-01	5.14549274e+02	1.48038204e-16	1.29581113e+04	1.66175505e+02	4.62528493e-06	7.72552453e+04	2.45608988e+01	3.04517314e-01	5.14591082e+02	-1.34734720e-16	1.29523011e+04	1.66154184e+02	4.62535570e-06	7.26835586e+04	2.45628944e+01	2.86497078e-01	5.14680100e+02	-3.11369682e-16	1.29399481e+04	1.66108902e+02	4.62538199e-06	6.83824078e+04	2.45671436e+01	2.69543215e-01	5.14735565e+02	-5.05630415e-18	1.29322520e+04	1.66080675e+02	4.62539725e-06	6.43357837e+04	2.45697911e+01	2.53592620e-01	5.14764162e+02	2.91300268e-16	1.29282831e+04	1.66066116e+02	4.62540909e-06	6.05286241e+04	2.45711561e+01	2.38585923e-01	5.14786465e+02	-2.06760817e-17	1.29251879e+04	1.66054759e+02	4.62541437e-06	5.69467584e+04	2.45722207e+01	2.24467269e-01	5.14806448e+02	1.80465649e-16	1.29224141e+04	1.66044581e+02	4.62541935e-06	5.35768547e+04	2.45731745e+01	2.11184106e-01	5.14822952e+02	-4.18034954e-16	1.29201229e+04	1.66036173e+02	4.62542400e-06	5.04063698e+04	2.45739623e+01	1.98686992e-01	5.14836671e+02	-1.50319887e-16	1.29182180e+04	1.66029182e+02	4.62542836e-06	4.74235026e+04	2.45746171e+01	1.86929413e-01	5.14848479e+02	-4.22087744e-16	1.29165785e+04	1.66023166e+02	4.62543337e-06	4.46171509e+04	2.45751808e+01	1.75867604e-01	5.14858733e+02	-4.70576255e-16	1.29151546e+04	1.66017941e+02	4.62543818e-06	4.19768687e+04	2.45756702e+01	1.65460394e-01	5.14867699e+02	-3.03868034e-16	1.29139093e+04	1.66013372e+02	4.62544210e-06	3.94928291e+04	2.45760982e+01	1.55669045e-01	5.14875611e+02	-3.85398261e-17	1.29128102e+04	1.66009340e+02	4.62544517e-06	3.71557860e+04	2.45764759e+01	1.46457112e-01	5.14882639e+02	5.53284391e-16	1.29118337e+04	1.66005758e+02	4.62544898e-06	3.49570405e+04	2.45768113e+01	1.37790309e-01	5.14888915e+02	1.15118598e-17	1.29109612e+04	1.66002558e+02	4.62545259e-06	3.28884091e+04	2.45771109e+01	1.29636375e-01	5.14894551e+02	5.26052593e-16	1.29101779e+04	1.65999686e+02	4.62545480e-06	3.09421915e+04	2.45773799e+01	1.21964962e-01	5.14899631e+02	2.41732113e-16	1.29094714e+04	1.65997097e+02	4.62545728e-06	2.91111443e+04	2.45776224e+01	1.14747515e-01	5.14904225e+02	2.11807069e-16	1.29088317e+04	1.65994753e+02	4.62546202e-06	2.73884516e+04	2.45778417e+01	1.07957171e-01	5.14908403e+02	1.01163942e-16	1.29082505e+04	1.65992626e+02	4.62546599e-06	2.57677019e+04	2.45780411e+01	1.01568655e-01	5.14912202e+02	4.83682591e-17	1.29077210e+04	1.65990688e+02	4.62546821e-06	2.42428622e+04	2.45782224e+01	9.55581887e-02	5.14915670e+02	1.03743617e-18	1.29072374e+04	1.65988920e+02	4.62547155e-06	2.28082571e+04	2.45783880e+01	8.99033997e-02	5.14918843e+02	-3.26669848e-17	1.29067947e+04	1.65987302e+02	4.62547584e-06	2.14585467e+04	2.45785394e+01	8.45832408e-02	5.14921750e+02	1.84499457e-16	1.29063885e+04	1.65985821e+02	4.62547913e-06	2.01887074e+04	2.45786782e+01	7.95779096e-02	5.14924419e+02	-9.30877409e-17	1.29060152e+04	1.65984460e+02	4.62548113e-06	1.89940124e+04	2.45788056e+01	7.48687759e-02	5.14926873e+02	-3.09582803e-16	1.29056713e+04	1.65983209e+02	4.62548495e-06	1.78700153e+04	2.45789227e+01	7.04383117e-02	5.14929132e+02	-5.25324115e-16	1.29053540e+04	1.65982057e+02	4.62549073e-06	1.68125322e+04	2.45790306e+01	6.62700264e-02	5.14931218e+02	-7.40078698e-16	1.29050608e+04	1.65980995e+02	4.62549250e-06	1.58176272e+04	2.45791301e+01	6.23484052e-02	5.14933139e+02	-5.38272046e-16	1.29047897e+04	1.65980014e+02	4.62549537e-06	1.48815970e+04	2.45792218e+01	5.86588514e-02	5.14934918e+02	-3.21387547e-16	1.29045385e+04	1.65979108e+02	4.62549824e-06	1.40009578e+04	2.45793067e+01	5.51876320e-02	5.14936561e+02	-1.79495463e-16	1.29043056e+04	1.65978272e+02	4.62549596e-06	1.31724316e+04	2.45793851e+01	5.19218269e-02	5.14938077e+02	-1.58158341e-16	1.29040894e+04	1.65977496e+02	4.62549832e-06	1.23929346e+04	2.45794575e+01	4.88492803e-02	5.14939487e+02	-9.10607073e-17	1.29038885e+04	1.65976777e+02	4.62549623e-06	1.16595654e+04	2.45795248e+01	4.59585560e-02	5.14940793e+02	-1.31864361e-16	1.29037019e+04	1.65976111e+02	4.62548746e-06	1.09695943e+04	2.45795871e+01	4.32388943e-02	5.14942007e+02	-8.86776011e-17	1.29035280e+04	1.65975492e+02	4.62547622e-06	1.03204533e+04	2.45796451e+01	4.06801723e-02	5.14943135e+02	-2.58318356e-17	1.29033662e+04	1.65974918e+02	4.62546315e-06	9.70972601e+03	2.45796989e+01	3.82728663e-02	5.14944177e+02	-1.08887721e-16	1.29032154e+04	1.65974384e+02	4.62544363e-06	9.13513942e+03	2.45797487e+01	3.60080159e-02	5.14945153e+02	-1.91764797e-16	1.29030748e+04	1.65973886e+02	4.62542385e-06	8.59455477e+03	2.45797953e+01	3.38771912e-02	5.14946061e+02	-3.40102998e-16	1.29029437e+04	1.65973423e+02	4.62540477e-06	8.08595997e+03	2.45798386e+01	3.18724610e-02	5.14946909e+02	-4.97220303e-16	1.29028212e+04	1.65972989e+02	4.62537637e-06	7.60746197e+03	2.45798791e+01	2.99863635e-02	5.14947705e+02	-3.48993834e-16	1.29027068e+04	1.65972587e+02	4.62535354e-06	7.15727976e+03	2.45799171e+01	2.82118784e-02	5.14948439e+02	-2.11222762e-16	1.29025999e+04	1.65972212e+02	4.62533459e-06	6.73373769e+03	2.45799521e+01	2.65424009e-02	5.14949119e+02	-1.37296145e-16	1.29024999e+04	1.65971858e+02	4.62530856e-06	6.33525931e+03	2.45799846e+01	2.49717171e-02	5.14949764e+02	-9.89218406e-17	1.29024064e+04	1.65971532e+02	4.62529048e-06	5.96036146e+03	2.45800154e+01	2.34939806e-02	5.14950367e+02	-7.98603910e-17	1.29023190e+04	1.65971232e+02	4.62530461e-06	5.60764868e+03	2.45800442e+01	2.21036912e-02	5.14950913e+02	-5.08121547e-17	1.29022372e+04	1.65970960e+02	4.62534031e-06	5.27580817e+03	2.45800702e+01	2.07956742e-02	5.14951402e+02	-4.09958673e-17	1.29021606e+04	1.65970713e+02	4.62538124e-06	4.96360481e+03	2.45800935e+01	1.95650608e-02	5.14951851e+02	1.79311359e-17	1.29020889e+04	1.65970487e+02	4.62542091e-06	4.66987648e+03	2.45801150e+01	1.84072706e-02	5.14952266e+02	7.50968182e-18	1.29020218e+04	1.65970282e+02	4.62548083e-06	4.39352992e+03	2.45801348e+01	1.73179943e-02	5.14952645e+02	-1.64070894e-17	1.29019588e+04	1.65970098e+02	4.62557360e-06	4.13353657e+03	2.45801529e+01	1.62931774e-02	5.14952968e+02	1.44200881e-17	1.29018998e+04	1.65969929e+02	4.62567174e-06	3.88892867e+03	2.45801683e+01	1.53290055e-02	5.14953254e+02	-9.60132764e-17	1.29018445e+04	1.65969778e+02	4.62575277e-06	3.65879580e+03	2.45801820e+01	1.44218897e-02	5.14953517e+02	-2.42372635e-17	1.29017926e+04	1.65969651e+02	4.62586214e-06	3.44228133e+03	2.45801945e+01	1.35684537e-02	5.14953742e+02	-4.52755625e-18	1.29017434e+04	1.65969546e+02	4.62590453e-06	3.23857940e+03	2.45802053e+01	1.27655210e-02	5.14953797e+02	-7.00621769e-17	1.29016972e+04	1.65969557e+02	4.62481407e-06	3.04693182e+03	2.45802079e+01	1.20101028e-02	5.14953650e+02	2.40119523e-17	1.29016465e+04	1.65969608e+02	4.62790316e-06	2.86662521e+03	2.45802008e+01	1.12993876e-02	5.14960171e+02	4.06182265e-17	1.29015928e+04	1.65964487e+02	5.26100636e-06	2.69698852e+03	2.45805121e+01	1.06307299e-02	5.14977194e+02	5.00989152e-17	1.29013949e+04	1.65956507e+02	7.32338879e-05	2.53739030e+03	2.45813247e+01	1.00016409e-02	5.14703378e+02	5.88772374e-18	1.29014394e+04	1.66177838e+02	8.90040904e-04	2.38723652e+03	2.45682547e+01	9.40977901e-03	5.13436367e+02	6.83932791e-18	1.29016569e+04	1.67048721e+02	2.73685532e-03	2.24596827e+03	2.45077767e+01	8.85294137e-03	5.11234107e+02	9.17849358e-18	1.29015225e+04	1.68397608e+02	4.28977993e-03	2.11305976e+03	2.44026565e+01	8.32905531e-03	5.08361526e+02	-4.41816540e-17	1.29014893e+04	1.70035877e+02	5.63019012e-03	1.98801629e+03	2.42655401e+01	7.83617088e-03	5.04982683e+02	-8.30805161e-17	1.29014231e+04	1.71868813e+02	6.80278796e-03	1.87037242e+03	2.41042583e+01	7.37245350e-03	5.01234215e+02	-1.25270909e-16	1.29013600e+04	1.73825350e+02	7.82480697e-03	1.75969027e+03	2.39253332e+01	6.93617719e-03	4.97221476e+02	-1.74052468e-16	1.29012920e+04	1.75854666e+02	8.70756156e-03	1.65555789e+03	2.37337938e+01	6.52571806e-03	4.93024803e+02	-1.63216974e-16	1.29012224e+04	1.77920347e+02	9.46106676e-03	1.55758766e+03	2.35334747e+01	6.13954835e-03	4.88705509e+02	-1.20826233e-16	1.29011506e+04	1.79996523e+02	1.00949850e-02	1.46541494e+03	2.33273025e+01	5.77623069e-03	4.84310461e+02	-8.39725974e-17	1.29010777e+04	1.82064638e+02	1.06187610e-02	1.37869665e+03	2.31175144e+01	5.43441278e-03	4.79875525e+02	-4.61763287e-17	1.29010046e+04	1.84111435e+02	1.10415724e-02	1.29711002e+03	2.29058223e+01	5.11282232e-03	4.75428136e+02	-2.94621851e-17	1.29009320e+04	1.86127540e+02	1.13722556e-02	1.22035137e+03	2.26935358e+01	4.81026234e-03	4.70989262e+02	-3.04930767e-17	1.29008609e+04	1.88106454e+02	1.16193406e-02	1.14813499e+03	2.24816557e+01	4.52560666e-03	4.66574778e+02	-8.78549810e-18	1.29007914e+04	1.90043790e+02	1.17910300e-02	1.08019210e+03	2.22709398e+01	4.25779577e-03	4.62196607e+02	1.08302019e-17	1.29007241e+04	1.91936778e+02	1.18946074e-02	1.01626979e+03	2.20619573e+01	4.00583285e-03	4.57863536e+02	3.13549401e-17	1.29006593e+04	1.93783858e+02	1.19372146e-02	9.56130155e+02	2.18551275e+01	3.76878006e-03	4.53581950e+02	5.29320211e-17	1.29005973e+04	1.95584362e+02	1.19254784e-02	8.99549331e+02	2.16507552e+01	3.54575508e-03	4.49356311e+02	6.75904867e-17	1.29005382e+04	1.97338282e+02	1.18655296e-02	8.46316729e+02	2.14490535e+01	3.33592777e-03	4.45189570e+02	8.26397523e-17	1.29004820e+04	1.99046108e+02	1.17630269e-02	7.96234205e+02	2.12501631e+01	3.13851714e-03	4.41083477e+02	9.57273013e-17	1.29004287e+04	2.00708693e+02	1.16231874e-02	7.49115350e+02	2.10541676e+01	2.95278840e-03	4.37038851e+02	1.06688339e-16	1.29003785e+04	2.02327149e+02	1.14508579e-02	7.04784781e+02	2.08611061e+01	2.77805026e-03	4.33055762e+02	9.96550167e-17	1.29003311e+04	2.03902769e+02	1.12504290e-02	6.63077498e+02	2.06709820e+01	2.61365231e-03	4.29133695e+02	9.27893089e-17	1.29002866e+04	2.05436972e+02	1.10259158e-02	6.23838258e+02	2.04837706e+01	2.45898266e-03	4.25271672e+02	9.26235881e-17	1.29002449e+04	2.06931257e+02	1.07809811e-02	5.86921012e+02	2.02994252e+01	2.31346559e-03	4.21468358e+02	9.31513871e-17	1.29002058e+04	2.08387168e+02	1.05189594e-02	5.52188345e+02	2.01178823e+01	2.17655950e-03	4.17722146e+02	9.45788981e-17	1.29001692e+04	2.09806264e+02	1.02428797e-02	5.19510985e+02	1.99390649e+01	2.04775479e-03	4.14031214e+02	9.70308146e-17	1.29001352e+04	2.11190109e+02	9.95548691e-03	4.88767299e+02	1.97628862e+01	1.92657204e-03	4.10393589e+02	1.00549361e-16	1.29001033e+04	2.12540240e+02	9.65926259e-03	4.59842857e+02	1.95892521e+01	1.81256020e-03	4.06807188e+02	1.01188599e-16	1.29000736e+04	2.13858169e+02	9.35644476e-03	4.32630000e+02	1.94180629e+01	1.70529490e-03	4.03269844e+02	1.02208648e-16	1.29000460e+04	2.15145373e+02	9.04904642e-03	4.07027437e+02	1.92492155e+01	1.60437688e-03	3.99779351e+02	1.02917105e-16	1.29000202e+04	2.16403282e+02	8.73887311e-03	3.82939871e+02	1.90826043e+01	1.50943053e-03	3.96333468e+02	1.03258520e-16	1.28999964e+04	2.17633280e+02	8.42753938e-03	3.60277650e+02	1.89181225e+01	1.42010244e-03	3.92929948e+02	1.00184955e-16	1.28999742e+04	2.18836698e+02	8.11648728e-03	3.38956421e+02	1.87556628e+01	1.33606012e-03	3.89566557e+02	1.02490911e-16	1.28999537e+04	2.20014819e+02	7.80700985e-03	3.18896823e+02	1.85951187e+01	1.25699076e-03	3.86241082e+02	9.97313427e-17	1.28999345e+04	2.21168863e+02	7.50025260e-03	3.00024193e+02	1.84363843e+01	1.18260006e-03	3.82951347e+02	9.71358635e-17	1.28999169e+04	2.22300005e+02	7.19722576e-03	2.82268287e+02	1.82793559e+01	1.11261111e-03	3.79695220e+02	9.47212040e-17	1.28999004e+04	2.23409354e+02	6.89881562e-03	2.65563011e+02	1.81239317e+01	1.04676342e-03	3.76470618e+02	9.24791609e-17	1.28998852e+04	2.24497970e+02	6.60579473e-03	2.49846189e+02	1.79700123e+01	9.84811900e-04	3.73275518e+02	9.35563080e-17	1.28998711e+04	2.25566857e+02	6.31883123e-03	2.35059322e+02	1.78175011e+01	9.26525952e-04	3.70107960e+02	9.32369100e-17	1.28998581e+04	2.26616965e+02	6.03849725e-03	2.21147371e+02	1.76663045e+01	8.71688631e-04	3.66966047e+02	9.19493556e-17	1.28998460e+04	2.27649189e+02	5.76527644e-03	2.08058553e+02	1.75163321e+01	8.20095829e-04	3.63847959e+02	9.08461516e-17	1.28998349e+04	2.28664373e+02	5.49957090e-03	1.95744151e+02	1.73674969e+01	7.71555510e-04	3.60751946e+02	8.98654963e-17	1.28998245e+04	2.29663311e+02	5.24170736e-03	1.84158330e+02	1.72197154e+01	7.25887002e-04	3.57676336e+02	8.90139502e-17	1.28998150e+04	2.30646746e+02	4.99194305e-03	1.73257966e+02	1.70729078e+01	6.82920324e-04	3.54619531e+02	8.58824735e-17	1.28998061e+04	2.31615371e+02	4.75047096e-03	1.63002486e+02	1.69269978e+01	6.42495547e-04	3.51580017e+02	8.51160547e-17	1.28997979e+04	2.32569838e+02	4.51742499e-03	1.53353719e+02	1.67819132e+01	6.04462207e-04	3.48556351e+02	8.44020459e-17	1.28997904e+04	2.33510748e+02	4.29288471e-03	1.44275751e+02	1.66375850e+01	5.68678739e-04	3.45547169e+02	8.37663737e-17	1.28997833e+04	2.34438664e+02	4.07688010e-03	1.35734792e+02	1.64939482e+01	5.35011954e-04	3.42551175e+02	8.32087129e-17	1.28997769e+04	2.35354107e+02	3.86939603e-03	1.27699053e+02	1.63509409e+01	5.03336541e-04	3.39567146e+02	8.27366225e-17	1.28997708e+04	2.36257558e+02	3.67037671e-03	1.20138624e+02	1.62085047e+01	4.73534599e-04	3.36593920e+02	8.23537597e-17	1.28997653e+04	2.37149469e+02	3.47973002e-03	1.13025362e+02	1.60665842e+01	4.45495204e-04	3.33630390e+02	8.20573793e-17	1.28997602e+04	2.38030256e+02	3.29733172e-03	1.06332794e+02	1.59251265e+01	4.19113989e-04	3.30675497e+02	8.18446153e-17	1.28997554e+04	2.38900308e+02	3.12302948e-03	1.00036007e+02	1.57840810e+01	3.94292761e-04	3.27728219e+02	8.17079809e-17	1.28997510e+04	2.39759994e+02	2.95664685e-03	9.41115650e+01	1.56433991e+01	3.70939133e-04	3.24787556e+02	8.16404060e-17	1.28997469e+04	2.40609653e+02	2.79798696e-03	8.85374163e+01	1.55030329e+01	3.48966179e-04	3.21852520e+02	8.05270406e-17	1.28997432e+04	2.41449620e+02	2.64683603e-03	8.32928130e+01	1.53629352e+01	3.28292114e-04	3.18922115e+02	7.94747555e-17	1.28997396e+04	2.42280214e+02	2.50296667e-03	7.83582345e+01	1.52230587e+01	3.08839988e-04	3.15995314e+02	7.84793695e-17	1.28997364e+04	2.43101751e+02	2.36614084e-03	7.37153138e+01	1.50833542e+01	2.90537397e-04	3.13071040e+02	7.75385536e-17	1.28997334e+04	2.43914548e+02	2.23611266e-03	6.93467693e+01	1.49437703e+01	2.73316217e-04	3.10148130e+02	7.66502753e-17	1.28997306e+04	2.44718931e+02	2.11263077e-03	6.52363408e+01	1.48042515e+01	2.57112349e-04	3.07225306e+02	7.58132555e-17	1.28997280e+04	2.45515246e+02	1.99544056e-03	6.13687289e+01	1.46647368e+01	2.41865480e-04	3.04301136e+02	7.50292977e-17	1.28997255e+04	2.46303862e+02	1.88428861e-03	5.77295378e+01	1.45251578e+01	2.27518861e-04	3.01373983e+02	7.39489390e-17	1.28997233e+04	2.47085186e+02	1.77892239e-03	5.43052224e+01	1.43854365e+01	2.14019091e-04	2.98441959e+02	7.29183134e-17	1.28997212e+04	2.47859667e+02	1.67909160e-03	5.10830367e+01	1.42454827e+01	2.01315922e-04	2.95502848e+02	7.19452628e-17	1.28997192e+04	2.48627819e+02	1.58454949e-03	4.80509874e+01	1.41051906e+01	1.89362073e-04	2.92554037e+02	7.10217237e-17	1.28997174e+04	2.49390232e+02	1.49505391e-03	4.51977891e+01	1.39644354e+01	1.78113050e-04	2.89592416e+02	6.95822226e-17	1.28997157e+04	2.50147585e+02	1.41036823e-03	4.25128218e+01	1.38230688e+01	1.67526982e-04	2.86614274e+02	6.82795919e-17	1.28997140e+04	2.50900669e+02	1.33026202e-03	3.99860916e+01	1.36809137e+01	1.57564468e-04	2.83615166e+02	6.71953813e-17	1.28997125e+04	2.51650411e+02	1.25451163e-03	3.76081940e+01	1.35377577e+01	1.48188425e-04	2.80589756e+02	6.61955440e-17	1.28997111e+04	2.52397895e+02	1.18290057e-03	3.53702780e+01	1.33933463e+01	1.39363955e-04	2.77531645e+02	6.52094345e-17	1.28997098e+04	2.53144392e+02	1.11521982e-03	3.32640140e+01	1.32473740e+01	1.31058213e-04	2.74433147e+02	6.42491282e-17	1.28997086e+04	2.53891394e+02	1.05126800e-03	3.12815622e+01	1.30994739e+01	1.23240283e-04	2.71285055e+02	6.33028145e-17	1.28997074e+04	2.54640638e+02	9.90851499e-04	2.94155436e+01	1.29492065e+01	1.15881067e-04	2.68076343e+02	6.23577363e-17	1.28997063e+04	2.55394150e+02	9.33784458e-04	2.76590129e+01	1.27960456e+01	1.08953172e-04	2.64793859e+02	6.14073636e-17	1.28997053e+04	2.56154279e+02	8.79888767e-04	2.60054319e+01	1.26393632e+01	1.02430813e-04	2.61421948e+02	6.04470694e-17	1.28997043e+04	2.56923717e+02	8.28993983e-04	2.44486459e+01	1.24784124e+01	9.62897123e-05	2.57942084e+02	5.94732640e-17	1.28997033e+04	2.57705540e+02	7.80937224e-04	2.29828605e+01	1.23123086e+01	9.05070119e-05	2.54332456e+02	5.84832121e-17	1.28997024e+04	2.58503203e+02	7.35563054e-04	2.16026196e+01	1.21400108e+01	8.50611882e-05	2.50567602e+02	5.74758886e-17	1.28997016e+04	2.59320527e+02	6.92723333e-04	2.03027860e+01	1.19603036e+01	7.99319713e-05	2.46618106e+02	5.64521256e-17	1.28997008e+04	2.60161637e+02	6.52277070e-04	1.90785215e+01	1.17717829e+01	7.51002697e-05	2.42450472e+02	5.54151543e-17	1.28997001e+04	2.61030847e+02	6.14090240e-04	1.79252693e+01	1.15728499e+01	7.05480993e-05	2.38027286e+02	5.43691695e-17	1.28996995e+04	2.61932447e+02	5.78035580e-04	1.68387368e+01	1.13617187e+01	6.62585164e-05	2.33307870e+02	5.33131962e-17	1.28996989e+04	2.62870390e+02	5.43992296e-04	1.58148799e+01	1.11364475e+01	6.22155547e-05	2.28249624e+02	5.17817870e-17	1.28996984e+04	2.63847836e+02	5.11845687e-04	1.48498877e+01	1.08950031e+01	5.84041659e-05	2.22810328e+02	5.06918354e-17	1.28996980e+04	2.64866566e+02	4.81486647e-04	1.39401683e+01	1.06353700e+01	5.48101637e-05	2.16951573e+02	4.95409636e-17	1.28996976e+04	2.65926294e+02	4.52811027e-04	1.30823357e+01	1.03557150e+01	5.14201707e-05	2.10643299e+02	4.82998030e-17	1.28996972e+04	2.67023959e+02	4.25718893e-04	1.22731970e+01	1.00546031e+01	4.82215690e-05	2.03869125e+02	4.69416006e-17	1.28996970e+04	2.68153180e+02	4.00113755e-04	1.15097404e+01	9.73125258e+00	4.52024532e-05	1.96631614e+02	4.54487238e-17	1.28996967e+04	2.69304026e+02	3.75901922e-04	1.07891243e+01	9.38578563e+00	4.23515857e-05	1.88956231e+02	4.38149859e-17	1.28996965e+04	2.70463350e+02	3.52992126e-04	1.01086665e+01	9.01941777e+00	3.96583552e-05	1.80892615e+02	4.19042077e-17	1.28996964e+04	2.71615687e+02	3.31295551e-04	9.46583412e+00	8.63451848e+00	3.71127374e-05	1.72512283e+02	3.98567950e-17	1.28996962e+04	2.72744653e+02	3.10726261e-04	8.85823465e+00	8.23450144e+00	3.47052572e-05	1.63902823e+02	3.76797300e-17	1.28996961e+04	2.73834540e+02	2.91201809e-04	8.28360647e+00	7.82354745e+00	3.24269536e-05	1.55159762e+02	3.59114063e-17	1.28996960e+04	2.74871734e+02	2.72643703e-04	7.73981075e+00	7.40621629e+00	3.02693465e-05	1.46377950e+02	3.40713182e-17	1.28996960e+04	2.75845702e+02	2.54977386e-04	7.22482341e+00	6.98703545e+00	2.82244052e-05	1.37644390e+02	3.21970555e-17	1.28996959e+04	2.76749374e+02	2.38147953e-04	6.73672765e+00	6.57015782e+00	2.62845182e-05	1.29033350e+02	3.05671648e-17	1.28996958e+04	2.77579047e+02	2.22111916e-04	6.27370672e+00	6.15912841e+00	2.44424649e-05	1.20603744e+02	2.89306559e-17	1.28996958e+04	2.78333944e+02	2.06825039e-04	5.83403717e+00	5.75675936e+00	2.26913890e-05	1.12398683e+02	2.72906408e-17	1.28996957e+04	2.79015594e+02	1.92242868e-04	5.41608252e+00	5.36510852e+00	2.10247729e-05	1.04446670e+02	2.54625319e-17	1.28996957e+04	2.79627183e+02	1.78321208e-04	5.01828711e+00	4.98553633e+00	1.94364132e-05	9.67636726e+01	2.36536446e-17	1.28996957e+04	2.80172949e+02	1.65016486e-04	4.63917029e+00	4.61880503e+00	1.79203980e-05	8.93554987e+01	2.18758970e-17	1.28996956e+04	2.80657705e+02	1.52285994e-04	4.27732098e+00	4.26519184e+00	1.64710843e-05	8.22200758e+01	2.01383018e-17	1.28996956e+04	2.81086470e+02	1.40088034e-04	3.93139229e+00	3.92459783e+00	1.50830778e-05	7.53494527e+01	1.84461052e-17	1.28996956e+04	2.81464208e+02	1.28381987e-04	3.60009667e+00	3.59664347e+00	1.37512121e-05	6.87314395e+01	1.68013282e-17	1.28996956e+04	2.81795658e+02	1.17128332e-04	3.28220099e+00	3.28074690e+00	1.24705299e-05	6.23508991e+01	1.52036443e-17	1.28996955e+04	2.82085230e+02	1.06288626e-04	2.97652202e+00	2.97618557e+00	1.12362643e-05	5.61907221e+01	1.36511511e-17	1.28996955e+04	2.82336954e+02	9.58254622e-05	2.68192197e+00	2.68214282e+00	1.00438213e-05	5.02325497e+01	1.21409359e-17	1.28996955e+04	2.82554452e+02	8.57024109e-05	2.39730432e+00	2.39774232e+00	8.88876249e-06	4.44572875e+01	1.06694712e-17	1.28996955e+04	2.82740930e+02	7.58839540e-05	2.12160971e+00	2.12207265e+00	7.76678857e-06	3.88454645e+01	9.23290547e-18	1.28996955e+04	2.82899199e+02	6.63354097e-05	1.85381194e+00	1.85420439e+00	6.67372346e-06	3.33774723e+01	7.82729987e-18	1.28996954e+04	2.83031683e+02	5.70228554e-05	1.59291425e+00	1.59320159e+00	5.60549865e-06	2.80337176e+01	6.44883792e-18	1.28996954e+04	2.83140447e+02	4.79130489e-05	1.33794556e+00	1.33812899e+00	4.55813811e-06	2.27947087e+01	5.21683465e-18	1.28996954e+04	2.83227207e+02	3.89733519e-05	1.08795685e+00	1.08805621e+00	3.52774344e-06	1.76410988e+01	4.00356050e-18	1.28996954e+04	2.83293361e+02	3.01716599e-05	8.42017630e-01	8.42059768e-01	2.51047941e-06	1.25536927e+01	2.80706736e-18	1.28996954e+04	2.83339995e+02	2.14763447e-05	5.99212487e-01	5.99223422e-01	1.50255965e-06	7.51343361e+00	1.62507303e-18	1.28996954e+04	2.83367907e+02	1.28562251e-05	3.58637678e-01	3.58637535e-01	5.00232578e-07	2.50137242e+00	5.31763631e-19	1.28996953e+04	2.83377609e+02	4.28059466e-06	1.19397756e-01	1.19397613e-01	