VARIABLES = "y", "u", "v", "P", "T", "nuT", "yplus", "uplus"
ZONE t="turbulent profile"
9.70411804e-01	7.06330000e+02	-1.63902374e-16	1.89000000e+02	4.96530121e+01	3.12180000e-07	1.02992408e+05	2.49718747e+01	9.12986334e-01	7.06330000e+02	-1.55745050e-16	1.89000000e+02	4.96530121e+01	3.12179999e-07	9.68976888e+04	2.49718747e+01	8.58959096e-01	7.06330000e+02	-1.04253883e-16	1.89000000e+02	4.96530121e+01	3.12179999e-07	9.11636331e+04	2.49718747e+01	8.08128996e-01	7.06330000e+02	-8.01307190e-17	1.89000000e+02	4.96530121e+01	3.12179999e-07	8.57688983e+04	2.49718747e+01	7.60306837e-01	7.06330000e+02	1.82147390e-16	1.89000000e+02	4.96530121e+01	3.12179999e-07	8.06934042e+04	2.49718747e+01	7.15314621e-01	7.06330000e+02	1.38874838e-16	1.89000000e+02	4.96530121e+01	3.12179999e-07	7.59182596e+04	2.49718747e+01	6.72984883e-01	7.06330000e+02	-1.37095567e-16	1.89000000e+02	4.96530121e+01	3.12179999e-07	7.14256910e+04	2.49718747e+01	6.33160065e-01	7.06330000e+02	-3.78364890e-17	1.89000000e+02	4.96530121e+01	3.12179999e-07	6.71989762e+04	2.49718747e+01	5.95691936e-01	7.06330000e+02	1.92142794e-17	1.89000000e+02	4.96530121e+01	3.12179999e-07	6.32223832e+04	2.49718747e+01	5.60441037e-01	7.06330001e+02	-3.77634704e-16	1.89000000e+02	4.96530121e+01	3.12179999e-07	5.94811107e+04	2.49718747e+01	5.27276158e-01	7.06330000e+02	-2.22452441e-17	1.89000000e+02	4.96530121e+01	3.12179999e-07	5.59612331e+04	2.49718747e+01	4.96073857e-01	7.06330003e+02	1.59129165e-17	1.88999995e+02	4.96530119e+01	3.12179999e-07	5.26496492e+04	2.49718748e+01	4.66717996e-01	7.06330001e+02	6.97953260e-17	1.88999993e+02	4.96530116e+01	3.12179999e-07	4.95340329e+04	2.49718747e+01	4.39099308e-01	7.06329993e+02	4.76057659e-17	1.89000061e+02	4.96530167e+01	3.12180000e-07	4.66027875e+04	2.49718744e+01	4.13114995e-01	7.06329980e+02	1.10873773e-16	1.89000175e+02	4.96530252e+01	3.12180003e-07	4.38450027e+04	2.49718740e+01	3.88668340e-01	7.06330037e+02	5.24908458e-17	1.88999643e+02	4.96529853e+01	3.12180013e-07	4.12504136e+04	2.49718760e+01	3.65668350e-01	7.06330249e+02	-8.63513252e-17	1.88997682e+02	4.96528383e+01	3.12180056e-07	3.88093629e+04	2.49718835e+01	3.44029416e-01	7.06330122e+02	-1.10115151e-18	1.88998848e+02	4.96529256e+01	3.12180095e-07	3.65127648e+04	2.49718790e+01	3.23670996e-01	7.06328311e+02	-3.84173189e-18	1.89015811e+02	4.96541990e+01	3.12180376e-07	3.43520711e+04	2.49718150e+01	3.04517314e-01	7.06325811e+02	4.16662069e-17	1.89039251e+02	4.96559586e+01	3.12180877e-07	3.23192394e+04	2.49717266e+01	2.86497078e-01	7.06331829e+02	-9.83107330e-17	1.88982851e+02	4.96517225e+01	3.12181265e-07	3.04067035e+04	2.49719393e+01	2.69543215e-01	7.06356792e+02	3.81991622e-17	1.88749047e+02	4.96341734e+01	3.12183775e-07	2.86073445e+04	2.49728219e+01	2.53592620e-01	7.06379811e+02	-3.57141684e-18	1.88533504e+02	4.96179844e+01	3.12187713e-07	2.69144651e+04	2.49736357e+01	2.38585923e-01	7.06329354e+02	1.44074025e-16	1.89018375e+02	4.96554905e+01	3.12189150e-07	2.53217640e+04	2.49718518e+01	2.24467269e-01	7.06125272e+02	1.18926357e-16	1.90945582e+02	4.98002372e+01	3.12191740e-07	2.38233134e+04	2.49646366e+01	2.11184106e-01	7.05770244e+02	-2.63385693e-17	1.94239803e+02	5.00435276e+01	3.12201530e-07	2.24135357e+04	2.49520848e+01	1.98686992e-01	7.05460568e+02	-1.59290652e-16	1.97162544e+02	5.02593066e+01	3.12207272e-07	2.10871835e+04	2.49411364e+01	1.86929413e-01	7.05324975e+02	-7.37952978e-17	1.98407233e+02	5.03485010e+01	3.12216736e-07	1.98393201e+04	2.49363426e+01	1.75867604e-01	7.05336943e+02	-7.25618694e-17	1.98287721e+02	5.03392987e+01	3.12224091e-07	1.86653006e+04	2.49367657e+01	1.65460394e-01	7.05397812e+02	1.09206452e-17	1.97716754e+02	5.02978856e+01	3.12226884e-07	1.75607555e+04	2.49389177e+01	1.55669045e-01	7.05440150e+02	2.31170860e-16	1.97319875e+02	5.02690514e+01	3.12228876e-07	1.65215733e+04	2.49404145e+01	1.46457112e-01	7.05462386e+02	1.43859539e-16	1.97111449e+02	5.02539212e+01	3.12230062e-07	1.55438862e+04	2.49412007e+01	1.37790309e-01	7.05479205e+02	-2.33243513e-17	1.96953586e+02	5.02424417e+01	3.12231342e-07	1.46240551e+04	2.49417953e+01	1.29636375e-01	7.05494390e+02	2.24541761e-17	1.96810934e+02	5.02320695e+01	3.12231809e-07	1.37586562e+04	2.49423322e+01	1.21964962e-01	7.05507104e+02	3.19034637e-17	1.96691460e+02	5.02233793e+01	3.12232269e-07	1.29444686e+04	2.49427817e+01	1.14747515e-01	7.05517713e+02	3.72097866e-17	1.96591743e+02	5.02161285e+01	3.12232959e-07	1.21784616e+04	2.49431567e+01	1.07957171e-01	7.05526863e+02	4.86200809e-17	1.96505677e+02	5.02098726e+01	3.12233566e-07	1.14577842e+04	2.49434802e+01	1.01568655e-01	7.05534833e+02	6.49697238e-17	1.96430643e+02	5.02044201e+01	3.12234082e-07	1.07797538e+04	2.49437620e+01	9.55581887e-02	7.05541821e+02	-2.67857214e-17	1.96364827e+02	5.01996390e+01	3.12234712e-07	1.01418469e+04	2.49440091e+01	8.99033997e-02	7.05547995e+02	-5.68943524e-17	1.96306619e+02	5.01954118e+01	3.12235486e-07	9.54168899e+03	2.49442274e+01	8.45832408e-02	7.05553488e+02	-1.07103039e-16	1.96254822e+02	5.01916545e+01	3.12236176e-07	8.97704625e+03	2.49444215e+01	7.95779096e-02	7.05558387e+02	-1.23297151e-16	1.96208486e+02	5.01882998e+01	3.12236548e-07	8.44581702e+03	2.49445948e+01	7.48687759e-02	7.05562789e+02	-7.70807205e-17	1.96166826e+02	5.01852870e+01	3.12236828e-07	7.94602403e+03	2.49447504e+01	7.04383117e-02	7.05566753e+02	-4.34159237e-17	1.96129202e+02	5.01825701e+01	3.12237314e-07	7.47580698e+03	2.49448905e+01	6.62700264e-02	7.05570342e+02	-1.18127554e-17	1.96095087e+02	5.01801129e+01	3.12238129e-07	7.03341568e+03	2.49450174e+01	6.23484052e-02	7.05573603e+02	3.70263098e-17	1.96064051e+02	5.01778850e+01	3.12238998e-07	6.61720350e+03	2.49451327e+01	5.86588514e-02	7.05576558e+02	6.81275952e-17	1.96035736e+02	5.01758630e+01	3.12239877e-07	6.22562126e+03	2.49452372e+01	5.51876320e-02	7.05579238e+02	4.29454360e-17	1.96009846e+02	5.01740285e+01	3.12240879e-07	5.85721143e+03	2.49453319e+01	5.19218269e-02	7.05581673e+02	6.92241128e-17	1.95986127e+02	5.01723656e+01	3.12242029e-07	5.51060278e+03	2.49454180e+01	4.88492803e-02	7.05583878e+02	9.06439895e-18	1.95964362e+02	5.01708593e+01	3.12243450e-07	5.18450516e+03	2.49454960e+01	4.59585560e-02	7.05585869e+02	4.15092850e-17	1.95944354e+02	5.01694976e+01	3.12245413e-07	4.87770484e+03	2.49455664e+01	4.32388943e-02	7.05587665e+02	3.19128476e-17	1.95925932e+02	5.01682745e+01	3.12248025e-07	4.58905985e+03	2.49456298e+01	4.06801723e-02	7.05589266e+02	-6.56317228e-17	1.95908939e+02	5.01671850e+01	3.12251353e-07	4.31749582e+03	2.49456865e+01	3.82728663e-02	7.05590686e+02	-5.85775515e-17	1.95893239e+02	5.01662234e+01	3.12255620e-07	4.06200197e+03	2.49457367e+01	3.60080159e-02	7.05591920e+02	-7.80064574e-17	1.95878713e+02	5.01653837e+01	3.12260867e-07	3.82162732e+03	2.49457803e+01	3.38771912e-02	7.05592981e+02	-1.04814665e-16	1.95865252e+02	5.01646618e+01	3.12266906e-07	3.59547718e+03	2.49458178e+01	3.18724610e-02	7.05593873e+02	-4.26225261e-17	1.95852767e+02	5.01640573e+01	3.12273771e-07	3.38270979e+03	2.49458493e+01	2.99863635e-02	7.05594584e+02	-1.94965773e-18	1.95841173e+02	5.01635679e+01	3.12281425e-07	3.18253320e+03	2.49458745e+01	2.82118784e-02	7.05595125e+02	-1.74371583e-17	1.95830397e+02	5.01631859e+01	3.12289516e-07	2.99420234e+03	2.49458936e+01	2.65424009e-02	7.05595506e+02	3.26723354e-17	1.95820374e+02	5.01629144e+01	3.12297508e-07	2.81701621e+03	2.49459071e+01	2.49717171e-02	7.05595737e+02	1.89784601e-17	1.95811040e+02	5.01627620e+01	3.12308263e-07	2.65031533e+03	2.49459152e+01	2.34939806e-02	7.05595854e+02	-2.58384985e-17	1.95802342e+02	5.01627047e+01	3.12329932e-07	2.49347919e+03	2.49459194e+01	2.21036912e-02	7.05595878e+02	-8.83429730e-17	1.95794215e+02	5.01627128e+01	3.12258924e-07	2.34592404e+03	2.49459202e+01	2.07956742e-02	7.05595339e+02	-1.90283855e-17	1.95786593e+02	5.01630759e+01	3.11797823e-07	2.20710069e+03	2.49459012e+01	1.95650608e-02	7.05593931e+02	8.99960651e-19	1.95779192e+02	5.01635786e+01	3.13107390e-07	2.07649239e+03	2.49458514e+01	1.84072706e-02	7.05603977e+02	-3.69537865e-18	1.95771528e+02	5.01561598e+01	7.32262039e-07	1.95361301e+03	2.49462066e+01	1.73179943e-02	7.05643482e+02	3.88721319e-18	1.95757949e+02	5.01389586e+01	5.99772128e-05	1.83800519e+03	2.49476032e+01	1.62931774e-02	7.05473641e+02	-7.67319960e-19	1.95746754e+02	5.02799709e+01	9.90187323e-04	1.72923863e+03	2.49415986e+01	1.53290055e-02	7.04377767e+02	6.74151438e-18	1.95767112e+02	5.09809059e+01	3.95789579e-03	1.62690848e+03	2.49028546e+01	1.44218897e-02	7.02144949e+02	1.93966121e-17	1.95757979e+02	5.22657144e+01	7.01076701e-03	1.53063384e+03	2.48239147e+01	1.35684537e-02	6.99081923e+02	4.56102973e-17	1.95750433e+02	5.38937676e+01	9.59503593e-03	1.44005639e+03	2.47156232e+01	1.27655210e-02	6.95376201e+02	1.35831517e-17	1.95743094e+02	5.57589630e+01	1.19032646e-02	1.35483899e+03	2.45846097e+01	1.20101028e-02	6.91178582e+02	-1.16458140e-17	1.95734865e+02	5.77848090e+01	1.39670338e-02	1.27466443e+03	2.44362053e+01	1.12993876e-02	6.86603982e+02	-2.98562770e-17	1.95726516e+02	5.99169900e+01	1.58014316e-02	1.19923432e+03	2.42744731e+01	1.06307299e-02	6.81741144e+02	-4.46128927e-17	1.95717676e+02	6.21171540e+01	1.74178296e-02	1.12826788e+03	2.41025504e+01	1.00016409e-02	6.76659563e+02	-5.59586470e-17	1.95708643e+02	6.43565442e+01	1.88268886e-02	1.06150098e+03	2.39228941e+01	9.40977901e-03	6.71414272e+02	-3.77854569e-17	1.95699566e+02	6.66133480e+01	2.00394214e-02	9.98685089e+02	2.37374500e+01	8.85294137e-03	6.66049307e+02	-3.43818867e-17	1.95690591e+02	6.88708939e+01	2.10665813e-02	9.39586417e+02	2.35477748e+01	8.32905531e-03	6.60600101e+02	-2.36500879e-17	1.95681830e+02	7.11163937e+01	2.19198112e-02	8.83984984e+02	2.33551214e+01	7.83617088e-03	6.55095318e+02	-9.34231918e-18	1.95673370e+02	7.33400488e+01	2.26107781e-02	8.31673837e+02	2.31605031e+01	7.37245350e-03	6.49558223e+02	7.60081769e-18	1.95665268e+02	7.55343787e+01	2.31514679e-02	7.82458267e+02	2.29647424e+01	6.93617719e-03	6.44007614e+02	2.58740071e-17	1.95657567e+02	7.76937699e+01	2.35525794e-02	7.36155092e+02	2.27685040e+01	6.52571806e-03	6.38458634e+02	1.57706330e-17	1.95650293e+02	7.98141017e+01	2.38256066e-02	6.92591964e+02	2.25723231e+01	6.13954835e-03	6.32923457e+02	8.40485786e-18	1.95643455e+02	8.18924073e+01	2.39817476e-02	6.51606736e+02	2.23766302e+01	5.77623069e-03	6.27411816e+02	1.58871251e-18	1.95637051e+02	8.39266409e+01	2.40317374e-02	6.13046859e+02	2.21817695e+01	5.43441278e-03	6.21931432e+02	-4.75098970e-18	1.95631073e+02	8.59154961e+01	2.39858114e-02	5.76768807e+02	2.19880138e+01	5.11282232e-03	6.16488342e+02	-1.72622338e-17	1.95625510e+02	8.78582602e+01	2.38536802e-02	5.42637549e+02	2.17955766e+01	4.81026234e-03	6.11087174e+02	-1.76244943e-17	1.95620344e+02	8.97546929e+01	2.36445131e-02	5.10526046e+02	2.16046215e+01	4.52560666e-03	6.05731386e+02	-1.80858844e-17	1.95615558e+02	9.16049306e+01	2.33669370e-02	4.80314775e+02	2.14152708e+01	4.25779577e-03	6.00423437e+02	-1.91346689e-17	1.95611129e+02	9.34094060e+01	2.30289903e-02	4.51891287e+02	2.12276115e+01	4.00583285e-03	5.95164987e+02	-2.04527652e-17	1.95607040e+02	9.51687793e+01	2.26383539e-02	4.25149787e+02	2.10417021e+01	3.76878006e-03	5.89957015e+02	-2.32946768e-17	1.95603265e+02	9.68838811e+01	2.22020275e-02	3.99990738e+02	2.08575774e+01	3.54575508e-03	5.84799935e+02	-2.57175199e-17	1.95599788e+02	9.85556783e+01	2.17264935e-02	3.76320499e+02	2.06752519e+01	3.33592777e-03	5.79693681e+02	-2.79785186e-17	1.95596585e+02	1.00185234e+02	2.12177359e-02	3.54050963e+02	2.04947233e+01	3.13851714e-03	5.74637788e+02	-3.00213059e-17	1.95593638e+02	1.01773681e+02	2.06812611e-02	3.33099244e+02	2.03159753e+01	2.95278840e-03	5.69631474e+02	-3.17656772e-17	1.95590929e+02	1.03322200e+02	2.01221202e-02	3.13387354e+02	2.01389800e+01	2.77805026e-03	5.64673677e+02	-3.30612077e-17	1.95588439e+02	1.04831993e+02	1.95449324e-02	2.94841927e+02	1.99637001e+01	2.61365231e-03	5.59763125e+02	-3.45833432e-17	1.95586151e+02	1.06304277e+02	1.89539088e-02	2.77393931e+02	1.97900905e+01	2.45898266e-03	5.54898362e+02	-3.58423367e-17	1.95584050e+02	1.07740264e+02	1.83528765e-02	2.60978426e+02	1.96180997e+01	2.31346559e-03	5.50077792e+02	-3.67591244e-17	1.95582122e+02	1.09141155e+02	1.77453026e-02	2.45534309e+02	1.94476713e+01	2.17655950e-03	5.45299704e+02	-3.52524791e-17	1.95580352e+02	1.10508132e+02	1.71343167e-02	2.31004099e+02	1.92787449e+01	2.04775479e-03	5.40562297e+02	-3.40917350e-17	1.95578728e+02	1.11842350e+02	1.65227345e-02	2.17333709e+02	1.91112567e+01	1.92657204e-03	5.35863706e+02	-3.21320343e-17	1.95577239e+02	1.13144931e+02	1.59130997e-02	2.04472259e+02	1.89451408e+01	1.81256020e-03	5.31202024e+02	-2.99341591e-17	1.95575873e+02	1.14416962e+02	1.53076908e-02	1.92371876e+02	1.87803298e+01	1.70529490e-03	5.26575312e+02	-2.76870756e-17	1.95574621e+02	1.15659490e+02	1.47085347e-02	1.80987522e+02	1.86167552e+01	1.60437688e-03	5.21981625e+02	-2.46718782e-17	1.95573472e+02	1.16873521e+02	1.41174244e-02	1.70276822e+02	1.84543481e+01	1.50943053e-03	5.17419007e+02	-2.15165134e-17	1.95572418e+02	1.18060015e+02	1.35359360e-02	1.60199911e+02	1.82930395e+01	1.42010244e-03	5.12885515e+02	-1.81808928e-17	1.95571452e+02	1.19219893e+02	1.29654454e-02	1.50719282e+02	1.81327606e+01	1.33606012e-03	5.08379210e+02	-1.20506476e-17	1.95570565e+02	1.20354028e+02	1.24071420e-02	1.41799645e+02	1.79734429e+01	1.25699076e-03	5.03898171e+02	-8.64674992e-18	1.95569753e+02	1.21463256e+02	1.18620427e-02	1.33407801e+02	1.78150184e+01	1.18260006e-03	4.99440493e+02	-5.26394669e-18	1.95569007e+02	1.22548364e+02	1.13310039e-02	1.25512517e+02	1.76574199e+01	1.11261111e-03	4.95004284e+02	-9.33153641e-19	1.95568323e+02	1.23610104e+02	1.08147338e-02	1.18084402e+02	1.75005804e+01	1.04676342e-03	4.90587665e+02	9.59602257e-19	1.95567696e+02	1.24649189e+02	1.03138029e-02	1.11095810e+02	1.73444335e+01	9.84811900e-04	4.86188753e+02	2.91151711e-18	1.95567119e+02	1.25666298e+02	9.82865407e-03	1.04520729e+02	1.71889126e+01	9.26525952e-04	4.81805655e+02	3.37792899e-18	1.95566590e+02	1.26662076e+02	9.35961262e-03	9.83346848e+01	1.70339507e+01	8.71688631e-04	4.77436443e+02	3.80094528e-18	1.95566104e+02	1.27637144e+02	8.90689558e-03	9.25146528e+01	1.68794799e+01	8.20095829e-04	4.73079139e+02	2.70627816e-18	1.95565657e+02	1.28592101e+02	8.47062058e-03	8.70389703e+01	1.67254300e+01	7.71555510e-04	4.68731677e+02	1.65906737e-18	1.95565246e+02	1.29527528e+02	8.05081454e-03	8.18872561e+01	1.65717281e+01	7.25887002e-04	4.64391865e+02	5.16204447e-19	1.95564867e+02	1.30443999e+02	7.64742203e-03	7.70403348e+01	1.64182966e+01	6.82920324e-04	4.60057336e+02	-6.23323167e-19	1.95564520e+02	1.31342087e+02	7.26031320e-03	7.24801660e+01	1.62650519e+01	6.42495547e-04	4.55725495e+02	-2.01481730e-18	1.95564199e+02	1.32222370e+02	6.88929139e-03	6.81897760e+01	1.61119023e+01	6.04462207e-04	4.51393433e+02	-2.04117167e-18	1.95563902e+02	1.33085444e+02	6.53410135e-03	6.41531956e+01	1.59587448e+01	5.68678739e-04	4.47057857e+02	-2.50298675e-18	1.95563629e+02	1.33931935e+02	6.19444978e-03	6.03554001e+01	1.58054631e+01	5.35011954e-04	4.42714982e+02	-2.84189856e-18	1.95563376e+02	1.34762502e+02	5.87000016e-03	5.67822539e+01	1.56519234e+01	5.03336541e-04	4.38360405e+02	-3.43928516e-18	1.95563142e+02	1.35577858e+02	5.56037949e-03	5.34204574e+01	1.54979699e+01	4.73534599e-04	4.33988967e+02	-3.94409810e-18	1.95562924e+02	1.36378780e+02	5.26518454e-03	5.02574973e+01	1.53434203e+01	4.45495204e-04	4.29594564e+02	-4.54529290e-18	1.95562723e+02	1.37166122e+02	4.98398779e-03	4.72816011e+01	1.51880589e+01	4.19113989e-04	4.25169956e+02	-5.22998980e-18	1.95562535e+02	1.37940834e+02	4.71634263e-03	4.44816920e+01	1.50316295e+01	3.94292761e-04	4.20706511e+02	-5.98019598e-18	1.95562360e+02	1.38703973e+02	4.46178827e-03	4.18473485e+01	1.48738270e+01	3.70939133e-04	4.16193927e+02	-6.79157041e-18	1.95562197e+02	1.39456719e+02	4.21985409e-03	3.93687653e+01	1.47142873e+01	3.48966179e-04	4.11619906e+02	-7.02019816e-18	1.95562044e+02	1.40200390e+02	3.99006341e-03	3.70367167e+01	1.45525756e+01	3.28292114e-04	4.06969768e+02	-6.67166378e-18	1.95561901e+02	1.40936443e+02	3.77193696e-03	3.48425227e+01	1.43881727e+01	3.08839988e-04	4.02226046e+02	-6.36289839e-18	1.95561768e+02	1.41666482e+02	3.56499582e-03	3.27780164e+01	1.42204613e+01	2.90537397e-04	3.97368006e+02	-6.67295132e-18	1.95561643e+02	1.42392250e+02	3.36876395e-03	3.08355133e+01	1.40487082e+01	2.73316217e-04	3.92371167e+02	-6.23031765e-18	1.95561526e+02	1.43115595e+02	3.18277048e-03	2.90077833e+01	1.38720479e+01	2.57112349e-04	3.87206796e+02	-5.82549653e-18	1.95561418e+02	1.43838428e+02	3.00655152e-03	2.72880233e+01	1.36894647e+01	2.41865480e-04	3.81841478e+02	-5.47745044e-18	1.95561316e+02	1.44562635e+02	2.83965186e-03	2.56698322e+01	1.34997770e+01	2.27518861e-04	3.76236779e+02	-5.14339408e-18	1.95561223e+02	1.45289943e+02	2.68162626e-03	2.41471871e+01	1.33016263e+01	2.14019091e-04	3.70349185e+02	-4.82753466e-18	1.95561138e+02	1.46021725e+02	2.53204066e-03	2.27144203e+01	1.30934739e+01	2.01315922e-04	3.64130444e+02	-4.53284752e-18	1.95561060e+02	1.46758730e+02	2.39047304e-03	2.13661989e+01	1.28736140e+01	1.89362073e-04	3.57528568e+02	-4.25740756e-18	1.95560990e+02	1.47500723e+02	2.25651407e-03	2.00975048e+01	1.26402087e+01	1.78113050e-04	3.50489766e+02	-3.99344965e-18	1.95560928e+02	1.48246042e+02	2.12976756e-03	1.89036158e+01	1.23913560e+01	1.67526982e-04	3.42961591e+02	-3.73813872e-18	1.95560873e+02	1.48991114e+02	2.00985053e-03	1.77800880e+01	1.21252019e+01	1.57564468e-04	3.34897442e+02	-3.50968473e-18	1.95560826e+02	1.49729984e+02	1.89639313e-03	1.67227397e+01	1.18400987e+01	1.48188425e-04	3.26262359e+02	-3.28505828e-18	1.95560785e+02	1.50453993e+02	1.78903837e-03	1.57276351e+01	1.15348105e+01	1.39363955e-04	3.17039505e+02	-3.06061836e-18	1.95560751e+02	1.51151743e+02	1.68744191e-03	1.47910704e+01	1.12087421e+01	1.31058213e-04	3.07236266e+02	-2.83542714e-18	1.95560722e+02	1.51809512e+02	1.59127210e-03	1.39095597e+01	1.08621544e+01	1.23240283e-04	2.96888414e+02	-2.60559494e-18	1.95560698e+02	1.52412177e+02	1.50021073e-03	1.30798218e+01	1.04963123e+01	1.15881067e-04	2.86060883e+02	-2.45938601e-18	1.95560678e+02	1.52944555e+02	1.41395415e-03	1.22987685e+01	1.01135114e+01	1.08953172e-04	2.74844356e+02	-2.30557632e-18	1.95560661e+02	1.53392941e+02	1.33221497e-03	1.15634924e+01	9.71695781e+00	1.02430813e-04	2.63348122e+02	-2.14081973e-18	1.95560648e+02	1.53746488e+02	1.25472324e-03	1.08712570e+01	9.31051535e+00	9.62897123e-05	2.51690664e+02	-1.96177005e-18	1.95560637e+02	1.53998143e+02	1.18122641e-03	1.02194855e+01	8.89837289e+00	9.05070119e-05	2.39990063e+02	-1.76576443e-18	1.95560627e+02	1.54144997e+02	1.11148746e-03	9.60575197e+00	8.48470513e+00	8.50611882e-05	2.28356229e+02	-1.55127301e-18	1.95560619e+02	1.54188077e+02	1.04534283e-03	9.02777209e+00	8.07339788e+00	7.99319713e-05	2.16885630e+02	-1.78314871e-18	1.95560613e+02	1.54131735e+02	9.82664335e-04	8.48339454e+00	7.66786173e+00	7.51002697e-05	2.05658252e+02	-1.98073667e-18	1.95560607e+02	1.53982854e+02	9.23320238e-04	7.97059309e+00	7.27092450e+00	7.05480993e-05	1.94736768e+02	-2.14703114e-18	1.95560602e+02	1.53750003e+02	8.67175645e-04	7.48745903e+00	6.88480195e+00	6.62585164e-05	1.84167393e+02	-2.29115032e-18	1.95560598e+02	1.53442671e+02	8.14093308e-04	7.03219409e+00	6.51112803e+00	6.22155547e-05	1.73981758e+02	-2.31422567e-18	1.95560595e+02	1.53070648e+02	7.63934630e-04	6.60310372e+00	6.15102098e+00	5.84041659e-05	1.64199191e+02	-2.32241528e-18	1.95560591e+02	1.52643557e+02	7.16560705e-04	6.19859080e+00	5.80516418e+00	5.48101637e-05	1.54829054e+02	-2.31222329e-18	1.95560589e+02	1.52170541e+02	6.71833310e-04	5.81714971e+00	5.47388859e+00	5.14201707e-05	1.45872881e+02	-2.25947405e-18	1.95560586e+02	1.51660057e+02	6.29615807e-04	5.45736066e+00	5.15724844e+00	4.82215690e-05	1.37326233e+02	-2.19609183e-18	1.95560584e+02	1.51119777e+02	5.89773924e-04	5.11788448e+00	4.85508684e+00	4.52024532e-05	1.29180238e+02	-2.12456948e-18	1.95560581e+02	1.50556541e+02	5.52176412e-04	4.79745762e+00	4.56709003e+00	4.23515857e-05	1.21422820e+02	-2.04742947e-18	1.95560579e+02	1.49976370e+02	5.16695566e-04	4.49488740e+00	4.29283116e+00	3.96583552e-05	1.14039676e+02	-1.85687342e-18	1.95560578e+02	1.49384488e+02	4.83207647e-04	4.20904763e+00	4.03180454e+00	3.71127374e-05	1.07015027e+02	-1.67048214e-18	1.95560576e+02	1.48785382e+02	4.51593167e-04	3.93887438e+00	3.78345227e+00	3.47052572e-05	1.00332183e+02	-1.60993473e-18	1.95560574e+02	1.48182857e+02	4.21737099e-04	3.68336205e+00	3.54718432e+00	3.24269536e-05	9.39739711e+01	-1.54981606e-18	1.95560573e+02	1.47580101e+02	3.93528985e-04	3.44155957e+00	3.32239354e+00	3.02693465e-05	8.79230499e+01	-1.49055612e-18	1.95560571e+02	1.46979742e+02	3.66862986e-04	3.21256695e+00	3.10846684e+00	2.82244052e-05	8.21621346e+01	-1.41920093e-18	1.95560570e+02	1.46383914e+02	3.41637854e-04	2.99553184e+00	2.90479312e+00	2.62845182e-05	7.66741582e+01	-1.34852439e-18	1.95560569e+02	1.45794305e+02	3.17756867e-04	2.78964643e+00	2.71076900e+00	2.44424649e-05	7.14423808e+01	-1.27843768e-18	1.95560568e+02	1.45212215e+02	2.95127713e-04	2.59414437e+00	2.52580264e+00	2.26913890e-05	6.64504603e+01	-1.20834068e-18	1.95560567e+02	1.44638593e+02	2.73662351e-04	2.40829799e+00	2.34931628e+00	2.10247729e-05	6.16824954e+01	-1.13815008e-18	1.95560566e+02	1.44074087e+02	2.53276832e-04	2.23141555e+00	2.18074773e+00	1.94364132e-05	5.71230458e+01	-1.06962835e-18	1.95560565e+02	1.43519072e+02	2.33891120e-04	2.06283867e+00	2.01955112e+00	1.79203980e-05	5.27571385e+01	-1.00054240e-18	1.95560564e+02	1.42973686e+02	2.15428873e-04	1.90193991e+00	1.86519708e+00	1.64710843e-05	4.85702596e+01	-9.34766218e-19	1.95560563e+02	1.42437858e+02	1.97817240e-04	1.74812036e+00	1.71717248e+00	1.50830778e-05	4.45483396e+01	-8.55232538e-19	1.95560562e+02	1.41911331e+02	1.80986623e-04	1.60080751e+00	1.57497990e+00	1.37512121e-05	4.06777309e+01	-7.83859253e-19	1.95560561e+02	1.41393680e+02	1.64870457e-04	1.45945303e+00	1.43813685e+00	1.24705299e-05	3.69451818e+01	-7.11647419e-19	1.95560560e+02	1.40884336e+02	1.49404963e-04	1.32353079e+00	1.30617480e+00	1.12362643e-05	3.33378067e+01	-6.41654570e-19	1.95560559e+02	1.40382593e+02	1.34528914e-04	1.19253487e+00	1.17863822e+00	1.00438213e-05	2.98430526e+01	-5.71901832e-19	1.95560559e+02	1.39887627e+02	1.20183378e-04	1.06597770e+00	1.05508327e+00	8.88876249e-06	2.64486663e+01	-5.02562346e-19	1.95560558e+02	1.39398501e+02	1.06311472e-04	9.43388208e-01	9.35076779e-01	7.76678857e-06	2.31426573e+01	-4.33181154e-19	1.95560557e+02	1.38914176e+02	9.28580803e-05	8.24310106e-01	8.18194805e-01	6.67372346e-06	1.99132619e+01	-3.94909438e-19	1.95560557e+02	1.38433514e+02	7.97695795e-05	7.08300174e-01	7.04021464e-01	5.60549865e-06	1.67489051e+01	-3.27599473e-19	1.95560556e+02	1.37955284e+02	6.69935188e-05	5.94926609e-01	5.92147520e-01	4.55813811e-06	1.36381616e+01	-2.64425488e-19	1.95560555e+02	1.37478163e+02	5.44782700e-05	4.83767425e-01	4.82169045e-01	3.52774344e-06	1.05697167e+01	-2.04710002e-19	1.95560554e+02	1.37000736e+02	4.21726137e-05	3.74408875e-01	3.73686011e-01	2.51047941e-06	7.53232524e+00	-1.45208472e-19	1.95560554e+02	1.36521497e+02	3.00252388e-05	2.66443914e-01	2.66300854e-01	1.50255965e-06	4.51477011e+00	-8.58448587e-20	1.95560553e+02	1.36038841e+02	1.79841096e-05	1.59470686e-01	1.59616997e-01	5.00232578e-07	1.50581916e+00	-2.97056855e-20	1.95560553e+02	1.35551063e+02	5.99565863e-06	5.30910254e-02	5.32373357e-02	