VARIABLES = "y", "u", "v", "P", "T", "nuT", "yplus", "uplus"
ZONE t="turbulent profile"
9.70411804e-01	7.06330000e+02	-1.21245595e-16	1.89000000e+02	4.96530121e+01	3.12180000e-07	3.40362034e+05	3.67082916e+01	9.12986334e-01	7.06330000e+02	-1.90151206e-16	1.89000000e+02	4.96530121e+01	3.12180000e-07	3.20220637e+05	3.67082916e+01	8.58959096e-01	7.06330000e+02	-6.67087209e-17	1.89000000e+02	4.96530121e+01	3.12179999e-07	3.01271135e+05	3.67082916e+01	8.08128996e-01	7.06330000e+02	-2.46959259e-16	1.89000000e+02	4.96530121e+01	3.12179999e-07	2.83442996e+05	3.67082916e+01	7.60306837e-01	7.06330000e+02	1.58215143e-16	1.89000000e+02	4.96530121e+01	3.12179999e-07	2.66669862e+05	3.67082916e+01	7.15314621e-01	7.06330000e+02	2.30295420e-16	1.89000000e+02	4.96530121e+01	3.12179999e-07	2.50889301e+05	3.67082916e+01	6.72984883e-01	7.06330000e+02	-8.12858306e-17	1.89000000e+02	4.96530121e+01	3.12179999e-07	2.36042578e+05	3.67082916e+01	6.33160065e-01	7.06330000e+02	-4.26571767e-17	1.89000000e+02	4.96530121e+01	3.12179999e-07	2.22074430e+05	3.67082916e+01	5.95691936e-01	7.06330000e+02	-2.00932565e-17	1.89000000e+02	4.96530121e+01	3.12179999e-07	2.08932866e+05	3.67082916e+01	5.60441037e-01	7.06330000e+02	-2.48090560e-16	1.89000000e+02	4.96530121e+01	3.12179999e-07	1.96568973e+05	3.67082916e+01	5.27276158e-01	7.06330000e+02	3.10568028e-17	1.89000000e+02	4.96530121e+01	3.12179999e-07	1.84936730e+05	3.67082916e+01	4.96073857e-01	7.06330001e+02	3.57412876e-17	1.89000000e+02	4.96530121e+01	3.12179998e-07	1.73992841e+05	3.67082917e+01	4.66717996e-01	7.06330000e+02	4.23577477e-17	1.89000000e+02	4.96530121e+01	3.12179998e-07	1.63696573e+05	3.67082917e+01	4.39099308e-01	7.06330001e+02	5.93710489e-17	1.88999995e+02	4.96530118e+01	3.12179998e-07	1.54009600e+05	3.67082917e+01	4.13114995e-01	7.06330000e+02	9.13165484e-18	1.88999994e+02	4.96530117e+01	3.12179998e-07	1.44895867e+05	3.67082917e+01	3.88668340e-01	7.06329996e+02	4.26488971e-17	1.89000049e+02	4.96530159e+01	3.12179999e-07	1.36321453e+05	3.67082915e+01	3.65668350e-01	7.06329984e+02	2.92254820e-17	1.89000155e+02	4.96530238e+01	3.12180002e-07	1.28254441e+05	3.67082908e+01	3.44029416e-01	7.06330026e+02	-1.23346697e-16	1.88999743e+02	4.96529928e+01	3.12180010e-07	1.20664806e+05	3.67082930e+01	3.23670996e-01	7.06330205e+02	-9.51116839e-18	1.88998062e+02	4.96528666e+01	3.12180045e-07	1.13524298e+05	3.67083023e+01	3.04517314e-01	7.06330142e+02	7.75895554e-17	1.88998665e+02	4.96529118e+01	3.12180078e-07	1.06806339e+05	3.67082990e+01	2.86497078e-01	7.06328671e+02	-4.52416841e-17	1.89012443e+02	4.96539462e+01	3.12180300e-07	1.00485926e+05	3.67082226e+01	2.69543215e-01	7.06326385e+02	2.08635010e-17	1.89033870e+02	4.96555545e+01	3.12180749e-07	9.45395312e+04	3.67081038e+01	2.53592620e-01	7.06330733e+02	1.29563391e-17	1.88993110e+02	4.96524935e+01	3.12181026e-07	8.89450228e+04	3.67083297e+01	2.38585923e-01	7.06351228e+02	-2.03799586e-17	1.88801146e+02	4.96380822e+01	3.12183022e-07	8.36815770e+04	3.67093949e+01	2.24467269e-01	7.06373010e+02	1.56459975e-16	1.88597174e+02	4.96227657e+01	3.12186462e-07	7.87296033e+04	3.67105269e+01	2.11184106e-01	7.06338096e+02	-7.46413929e-17	1.88930027e+02	4.96483079e+01	3.12187925e-07	7.40706694e+04	3.67087124e+01	1.98686992e-01	7.06181387e+02	-1.35344952e-16	1.90409683e+02	4.97598051e+01	3.12190535e-07	6.96874343e+04	3.67005681e+01	1.86929413e-01	7.05904815e+02	3.84484185e-17	1.92980331e+02	4.99501869e+01	3.12198367e-07	6.55635835e+04	3.66861946e+01	1.75867604e-01	7.05652223e+02	-4.10792594e-17	1.95359723e+02	5.01265452e+01	3.12202158e-07	6.16837669e+04	3.66730673e+01	1.65460394e-01	7.05533441e+02	-2.50529763e-17	1.96457973e+02	5.02061032e+01	3.12208941e-07	5.80335442e+04	3.66668941e+01	1.55669045e-01	7.05535300e+02	8.00676514e-17	1.96435625e+02	5.02040804e+01	3.12214846e-07	5.45993285e+04	3.66669907e+01	1.46457112e-01	7.05579945e+02	1.62966429e-16	1.96016929e+02	5.01734993e+01	3.12217106e-07	5.13683370e+04	3.66693109e+01	1.37790309e-01	7.05611953e+02	-6.56249416e-17	1.95716944e+02	5.01515636e+01	3.12218539e-07	4.83285443e+04	3.66709744e+01	1.29636375e-01	7.05628340e+02	3.85173589e-17	1.95563403e+02	5.01403402e+01	3.12219488e-07	4.54686352e+04	3.66718260e+01	1.21964962e-01	7.05640509e+02	-4.44716907e-17	1.95449224e+02	5.01319885e+01	3.12219856e-07	4.27779654e+04	3.66724585e+01	1.14747515e-01	7.05651606e+02	5.78129738e-17	1.95345078e+02	5.01243669e+01	3.12220286e-07	4.02465196e+04	3.66730352e+01	1.07957171e-01	7.05660926e+02	4.39800386e-17	1.95257594e+02	5.01179651e+01	3.12220797e-07	3.78648757e+04	3.66735196e+01	1.01568655e-01	7.05668690e+02	2.16548860e-17	1.95184671e+02	5.01126298e+01	3.12221180e-07	3.56241689e+04	3.66739231e+01	9.55581887e-02	7.05675391e+02	2.97300003e-17	1.95121725e+02	5.01080253e+01	3.12221499e-07	3.35160592e+04	3.66742713e+01	8.99033997e-02	7.05681229e+02	-7.06802541e-17	1.95066845e+02	5.01040116e+01	3.12221813e-07	3.15326997e+04	3.66745747e+01	8.45832408e-02	7.05686348e+02	-2.91823285e-17	1.95018721e+02	5.01004929e+01	3.12222154e-07	2.96667083e+04	3.66748407e+01	7.95779096e-02	7.05690872e+02	-8.43804592e-17	1.94976154e+02	5.00973817e+01	3.12222610e-07	2.79111395e+04	3.66750758e+01	7.48687759e-02	7.05694895e+02	-1.82880615e-16	1.94938248e+02	5.00946143e+01	3.12222973e-07	2.62594589e+04	3.66752849e+01	7.04383117e-02	7.05698495e+02	-1.32190144e-16	1.94904304e+02	5.00921388e+01	3.12223264e-07	2.47055188e+04	3.66754721e+01	6.62700264e-02	7.05701729e+02	-8.38624683e-17	1.94873763e+02	5.00899125e+01	3.12223535e-07	2.32435353e+04	3.66756401e+01	6.23484052e-02	7.05704650e+02	-7.07613615e-17	1.94846173e+02	5.00879044e+01	3.12223815e-07	2.18680667e+04	3.66757919e+01	5.86588514e-02	7.05707294e+02	1.79577761e-17	1.94821166e+02	5.00860868e+01	3.12224129e-07	2.05739933e+04	3.66759294e+01	5.51876320e-02	7.05709692e+02	4.64594570e-17	1.94798427e+02	5.00844367e+01	3.12224482e-07	1.93564986e+04	3.66760539e+01	5.19218269e-02	7.05711875e+02	8.58202189e-17	1.94777691e+02	5.00829357e+01	3.12224895e-07	1.82110508e+04	3.66761674e+01	4.88492803e-02	7.05713865e+02	1.78133386e-16	1.94758731e+02	5.00815677e+01	3.12225367e-07	1.71333864e+04	3.66762708e+01	4.59585560e-02	7.05715677e+02	1.21881326e-16	1.94741354e+02	5.00803193e+01	3.12225750e-07	1.61194944e+04	3.66763650e+01	4.32388943e-02	7.05717337e+02	1.12162024e-16	1.94725394e+02	5.00791783e+01	3.12226149e-07	1.51656008e+04	3.66764513e+01	4.06801723e-02	7.05718856e+02	4.47534411e-17	1.94710710e+02	5.00781360e+01	3.12226935e-07	1.42681552e+04	3.66765302e+01	3.82728663e-02	7.05720240e+02	-1.96981936e-18	1.94697178e+02	5.00771842e+01	3.12227719e-07	1.34238172e+04	3.66766022e+01	3.60080159e-02	7.05721506e+02	-5.38332325e-17	1.94684691e+02	5.00763140e+01	3.12228373e-07	1.26294440e+04	3.66766680e+01	3.38771912e-02	7.05722663e+02	-1.10147190e-16	1.94673152e+02	5.00755184e+01	3.12229184e-07	1.18820790e+04	3.66767281e+01	3.18724610e-02	7.05723715e+02	-1.89255102e-17	1.94662476e+02	5.00747975e+01	3.12230319e-07	1.11789403e+04	3.66767828e+01	2.99863635e-02	7.05724666e+02	9.28329925e-17	1.94652586e+02	5.00741452e+01	3.12231760e-07	1.05174109e+04	3.66768322e+01	2.82118784e-02	7.05725528e+02	1.72847769e-16	1.94643414e+02	5.00735536e+01	3.12233439e-07	9.89502837e+03	3.66768770e+01	2.65424009e-02	7.05726308e+02	1.89994730e-16	1.94634900e+02	5.00730174e+01	3.12235237e-07	9.30947617e+03	3.66769175e+01	2.49717171e-02	7.05727010e+02	2.99881724e-17	1.94626986e+02	5.00725356e+01	3.12237029e-07	8.75857487e+03	3.66769540e+01	2.34939806e-02	7.05727635e+02	-1.09334891e-16	1.94619625e+02	5.00721073e+01	3.12238743e-07	8.24027387e+03	3.66769865e+01	2.21036912e-02	7.05728193e+02	-8.37490883e-17	1.94612771e+02	5.00717274e+01	3.12240227e-07	7.75264406e+03	3.66770155e+01	2.07956742e-02	7.05728688e+02	-7.50411215e-17	1.94606385e+02	5.00713826e+01	3.12244718e-07	7.29387045e+03	3.66770412e+01	1.95650608e-02	7.05729146e+02	-6.39005498e-17	1.94600429e+02	5.00710598e+01	3.12255598e-07	6.86224536e+03	3.66770650e+01	1.84072706e-02	7.05729555e+02	-1.87796997e-17	1.94594850e+02	5.00707773e+01	3.12142737e-07	6.45616226e+03	3.66770862e+01	1.73179943e-02	7.05729450e+02	-2.04135707e-17	1.94589612e+02	5.00707462e+01	3.11813635e-07	6.07410972e+03	3.66770808e+01	1.62931774e-02	7.05729390e+02	-3.79634808e-17	1.94584311e+02	5.00704487e+01	3.16431493e-07	5.71466565e+03	3.66770776e+01	1.53290055e-02	7.05744238e+02	-5.57626453e-17	1.94578603e+02	5.00631354e+01	1.97476540e-06	5.37649220e+03	3.66778493e+01	1.44218897e-02	7.05767498e+02	-7.32993048e-17	1.94565625e+02	5.00581390e+01	1.32674839e-04	5.05833060e+03	3.66790582e+01	1.35684537e-02	7.05411974e+02	-6.43378437e-17	1.94565691e+02	5.02408801e+01	1.43617112e-03	4.75899663e+03	3.66605814e+01	1.27655210e-02	7.03936087e+02	-4.36783376e-17	1.94578765e+02	5.08889995e+01	4.30550749e-03	4.47737618e+03	3.65838789e+01	1.20101028e-02	7.01361954e+02	-2.37190387e-17	1.94568954e+02	5.19037229e+01	6.81528713e-03	4.21242096e+03	3.64501000e+01	1.12993876e-02	6.97990289e+02	-1.08082377e-17	1.94564767e+02	5.31380985e+01	8.99492000e-03	3.96314486e+03	3.62748731e+01	1.06307299e-02	6.94004981e+02	-1.71086580e-17	1.94558600e+02	5.45212441e+01	1.09285850e-02	3.72862000e+03	3.60677548e+01	1.00016409e-02	6.89556183e+02	-3.56907838e-17	1.94551977e+02	5.60001082e+01	1.26411112e-02	3.50797345e+03	3.58365488e+01	9.40977901e-03	6.84759217e+02	-1.59440842e-17	1.94544958e+02	5.75363546e+01	1.41464916e-02	3.30038393e+03	3.55872482e+01	8.85294137e-03	6.79703092e+02	-7.14054463e-19	1.94537480e+02	5.91027079e+01	1.54564576e-02	3.10507882e+03	3.53244791e+01	8.32905531e-03	6.74457219e+02	-4.47094537e-18	1.94529744e+02	6.06789847e+01	1.65823679e-02	2.92133113e+03	3.50518487e+01	7.83617088e-03	6.69076180e+02	-7.45812938e-18	1.94521894e+02	6.22501602e+01	1.75356391e-02	2.74845695e+03	3.47721936e+01	7.37245350e-03	6.63603212e+02	-1.05033979e-17	1.94514065e+02	6.38050434e+01	1.83277715e-02	2.58581281e+03	3.44877610e+01	6.93617719e-03	6.58072708e+02	-4.80087941e-18	1.94506362e+02	6.53353349e+01	1.89702575e-02	2.43279335e+03	3.42003382e+01	6.52571806e-03	6.52512088e+02	1.97835506e-18	1.94498867e+02	6.68349422e+01	1.94745753e-02	2.28882900e+03	3.39113503e+01	6.13954835e-03	6.46943284e+02	9.51907267e-18	1.94491645e+02	6.82994730e+01	1.98519816e-02	2.15338391e+03	3.36219370e+01	5.77623069e-03	6.41383708e+02	5.15575938e-18	1.94484745e+02	6.97258757e+01	2.01128324e-02	2.02595395e+03	3.33330033e+01	5.43441278e-03	6.35847054e+02	8.09401401e-19	1.94478185e+02	7.11121397e+01	2.02677926e-02	1.90606481e+03	3.30452609e+01	5.11282232e-03	6.30344120e+02	6.20813807e-18	1.94471983e+02	7.24570460e+01	2.03269783e-02	1.79327024e+03	3.27592709e+01	4.81026234e-03	6.24883327e+02	1.13284064e-17	1.94466144e+02	7.37599950e+01	2.02999569e-02	1.68715041e+03	3.24754710e+01	4.52560666e-03	6.19471133e+02	1.37688025e-17	1.94460668e+02	7.50208707e+01	2.01957396e-02	1.58731034e+03	3.21941968e+01	4.25779577e-03	6.14112380e+02	1.28370772e-17	1.94455548e+02	7.62399291e+01	2.00227803e-02	1.49337840e+03	3.19156999e+01	4.00583285e-03	6.08810570e+02	8.32940356e-18	1.94450774e+02	7.74177133e+01	1.97889880e-02	1.40500498e+03	3.16401625e+01	3.76878006e-03	6.03568098e+02	1.08136179e-17	1.94446332e+02	7.85549815e+01	1.95016872e-02	1.32186113e+03	3.13677088e+01	3.54575508e-03	5.98386462e+02	1.33382728e-17	1.94442206e+02	7.96526479e+01	1.91678478e-02	1.24363740e+03	3.10984168e+01	3.33592777e-03	5.93266425e+02	1.07875794e-17	1.94438381e+02	8.07117382e+01	1.87937905e-02	1.17004261e+03	3.08323262e+01	3.13851714e-03	5.88208134e+02	8.18430609e-18	1.94434840e+02	8.17333552e+01	1.83853439e-02	1.10080285e+03	3.05694445e+01	2.95278840e-03	5.83211229e+02	5.56901801e-18	1.94431566e+02	8.27186519e+01	1.79478659e-02	1.03566039e+03	3.03097531e+01	2.77805026e-03	5.78274939e+02	3.10189187e-18	1.94428541e+02	8.36688075e+01	1.74862676e-02	9.74372771e+02	3.00532118e+01	2.61365231e-03	5.73398153e+02	7.54858389e-19	1.94425749e+02	8.45850102e+01	1.70050370e-02	9.16711868e+02	2.97997630e+01	2.45898266e-03	5.68579489e+02	4.65388860e-19	1.94423174e+02	8.54684420e+01	1.65082636e-02	8.62463067e+02	2.95493349e+01	2.31346559e-03	5.63817353e+02	3.05763863e-19	1.94420800e+02	8.63202689e+01	1.59996626e-02	8.11424440e+02	2.93018445e+01	2.17655950e-03	5.59109971e+02	-3.93637738e-18	1.94418614e+02	8.71416313e+01	1.54825985e-02	7.63406027e+02	2.90571997e+01	2.04775479e-03	5.54455442e+02	-6.39442019e-18	1.94416600e+02	8.79336382e+01	1.49601091e-02	7.18229089e+02	2.88153018e+01	1.92657204e-03	5.49851761e+02	-8.81607004e-18	1.94414747e+02	8.86973625e+01	1.44349273e-02	6.75725477e+02	2.85760463e+01	1.81256020e-03	5.45296845e+02	-1.11124764e-17	1.94413042e+02	8.94338363e+01	1.39095045e-02	6.35736988e+02	2.83393253e+01	1.70529490e-03	5.40788564e+02	-1.32598861e-17	1.94411473e+02	9.01440495e+01	1.33860504e-02	5.98114779e+02	2.81050279e+01	1.60437688e-03	5.36324760e+02	-1.37117240e-17	1.94410030e+02	9.08289466e+01	1.28665365e-02	5.62718813e+02	2.78730420e+01	1.50943053e-03	5.31903271e+02	-1.41170411e-17	1.94408703e+02	9.14894263e+01	1.23527107e-02	5.29417350e+02	2.76432551e+01	1.42010244e-03	5.27521934e+02	-1.45037123e-17	1.94407484e+02	9.21263403e+01	1.18461145e-02	4.98086435e+02	2.74155551e+01	1.33606012e-03	5.23178609e+02	-1.49105124e-17	1.94406363e+02	9.27404944e+01	1.13480993e-02	4.68609449e+02	2.71898305e+01	1.25699076e-03	5.18871185e+02	-1.44964619e-17	1.94405332e+02	9.33326476e+01	1.08598404e-02	4.40876678e+02	2.69659717e+01	1.18260006e-03	5.14597588e+02	-1.40754394e-17	1.94404385e+02	9.39035143e+01	1.03823508e-02	4.14784899e+02	2.67438709e+01	1.11261111e-03	5.10355793e+02	-1.36263417e-17	1.94403514e+02	9.44537643e+01	9.91649328e-03	3.90236989e+02	2.65234229e+01	1.04676342e-03	5.06143825e+02	-1.37555586e-17	1.94402713e+02	9.49840242e+01	9.46299162e-03	3.67141584e+02	2.63045250e+01	9.84811900e-04	5.01959768e+02	-1.39342678e-17	1.94401977e+02	9.54948796e+01	9.02244103e-03	3.45412721e+02	2.60870776e+01	9.26525952e-04	4.97801762e+02	-1.41351043e-17	1.94401300e+02	9.59868750e+01	8.59531770e-03	3.24969520e+02	2.58709842e+01	8.71688631e-04	4.93668011e+02	-1.44343820e-17	1.94400678e+02	9.64605173e+01	8.18198778e-03	3.05735889e+02	2.56561513e+01	8.20095829e-04	4.89556777e+02	-1.46993617e-17	1.94400106e+02	9.69162775e+01	7.78271593e-03	2.87640241e+02	2.54424886e+01	7.71555510e-04	4.85466381e+02	-1.48686620e-17	1.94399579e+02	9.73545907e+01	7.39767349e-03	2.70615219e+02	2.52299088e+01	7.25887002e-04	4.81395191e+02	-1.50248515e-17	1.94399094e+02	9.77758614e+01	7.02694622e-03	2.54597456e+02	2.50183272e+01	6.82920324e-04	4.77341620e+02	-1.40226867e-17	1.94398648e+02	9.81804639e+01	6.67054198e-03	2.39527332e+02	2.48076613e+01	6.42495547e-04	4.73304112e+02	-1.30957200e-17	1.94398238e+02	9.85687446e+01	6.32839815e-03	2.25348755e+02	2.45978302e+01	6.04462207e-04	4.69281128e+02	-1.22558496e-17	1.94397859e+02	9.89410244e+01	6.00038871e-03	2.12008949e+02	2.43887538e+01	5.68678739e-04	4.65271126e+02	-1.18958393e-17	1.94397510e+02	9.92976019e+01	5.68633134e-03	1.99458263e+02	2.41803522e+01	5.35011954e-04	4.61272541e+02	-1.15777207e-17	1.94397189e+02	9.96387537e+01	5.38599407e-03	1.87649982e+02	2.39725439e+01	5.03336541e-04	4.57283755e+02	-1.12876415e-17	1.94396892e+02	9.99647384e+01	5.09910175e-03	1.76540154e+02	2.37652449e+01	4.73534599e-04	4.53303069e+02	-1.10008667e-17	1.94396618e+02	1.00275798e+02	4.82534219e-03	1.66087427e+02	2.35583668e+01	4.45495204e-04	4.49328654e+02	-1.07409644e-17	1.94396365e+02	1.00572157e+02	4.56437181e-03	1.56252895e+02	2.33518147e+01	4.19113989e-04	4.45358514e+02	-1.04617417e-17	1.94396132e+02	1.00854028e+02	4.31582103e-03	1.46999953e+02	2.31454847e+01	3.94292761e-04	4.41390424e+02	-1.02246872e-17	1.94395915e+02	1.01121610e+02	4.07929896e-03	1.38294161e+02	2.29392613e+01	3.70939133e-04	4.37421870e+02	-1.02136569e-17	1.94395714e+02	1.01375087e+02	3.85439956e-03	1.30103114e+02	2.27330137e+01	3.48966179e-04	4.33449969e+02	-1.02381935e-17	1.94395529e+02	1.01614631e+02	3.64071269e-03	1.22396325e+02	2.25265922e+01	3.28292114e-04	4.29471397e+02	-1.02343193e-17	1.94395356e+02	1.01840398e+02	3.43782072e-03	1.15145108e+02	2.23198240e+01	3.08839988e-04	4.25482276e+02	-1.02509059e-17	1.94395195e+02	1.02052525e+02	3.24530199e-03	1.08322473e+02	2.21125076e+01	2.90537397e-04	4.21478064e+02	-1.02560918e-17	1.94395046e+02	1.02251127e+02	3.06273395e-03	1.01903026e+02	2.19044069e+01	2.73316217e-04	4.17453417e+02	-1.04752220e-17	1.94394907e+02	1.02436288e+02	2.88969579e-03	9.58628731e+01	2.16952441e+01	2.57112349e-04	4.13402033e+02	-1.04216389e-17	1.94394777e+02	1.02608059e+02	2.72577080e-03	9.01795318e+01	2.14846918e+01	2.41865480e-04	4.09316474e+02	-9.99462050e-18	1.94394656e+02	1.02766437e+02	2.57054830e-03	8.48318482e+01	2.12723635e+01	2.27518861e-04	4.05187965e+02	-9.72437869e-18	1.94394542e+02	1.02911361e+02	2.42362530e-03	7.97999180e+01	2.10578030e+01	2.14019091e-04	4.01006167e+02	-9.44220072e-18	1.94394436e+02	1.03042682e+02	2.28460788e-03	7.50650115e+01	2.08404731e+01	2.01315922e-04	3.96758937e+02	-9.33607429e-18	1.94394336e+02	1.03160144e+02	2.15311228e-03	7.06095046e+01	2.06197426e+01	1.89362073e-04	3.92432052e+02	-9.48108149e-18	1.94394243e+02	1.03263351e+02	2.02876576e-03	6.64168141e+01	2.03948724e+01	1.78113050e-04	3.88008941e+02	-9.63345872e-18	1.94394155e+02	1.03351725e+02	1.91120740e-03	6.24713341e+01	2.01650013e+01	1.67526982e-04	3.83470415e+02	-9.78175721e-18	1.94394073e+02	1.03424455e+02	1.80008856e-03	5.87583788e+01	1.99291320e+01	1.57564468e-04	3.78794430e+02	-9.84297651e-18	1.94393997e+02	1.03480439e+02	1.69507336e-03	5.52641288e+01	1.96861190e+01	1.48188425e-04	3.73955908e+02	-9.80845762e-18	1.94393926e+02	1.03518210e+02	1.59583891e-03	5.19755774e+01	1.94346588e+01	1.39363955e-04	3.68926676e+02	-9.89958957e-18	1.94393861e+02	1.03535851e+02	1.50207557e-03	4.88804846e+01	1.91732873e+01	1.31058213e-04	3.63675607e+02	-9.95761949e-18	1.94393801e+02	1.03530904e+02	1.41348704e-03	4.59673304e+01	1.89003869e+01	1.23240283e-04	3.58169009e+02	-9.99077127e-18	1.94393746e+02	1.03500273e+02	1.32979037e-03	4.32252712e+01	1.86142065e+01	1.15881067e-04	3.52371409e+02	-1.00070742e-17	1.94393696e+02	1.03440135e+02	1.25071589e-03	4.06441014e+01	1.83129025e+01	1.08953172e-04	3.46246795e+02	-9.96827719e-18	1.94393652e+02	1.03345873e+02	1.17600704e-03	3.82142129e+01	1.79946035e+01	1.02430813e-04	3.39760419e+02	-9.92149287e-18	1.94393613e+02	1.03212058e+02	1.10542012e-03	3.59265621e+01	1.76575037e+01	9.62897123e-05	3.32881139e+02	-9.72334808e-18	1.94393578e+02	1.03032494e+02	1.03872390e-03	3.37726337e+01	1.72999843e+01	9.05070119e-05	3.25584208e+02	-9.52005305e-18	1.94393549e+02	1.02800373e+02	9.75699307e-04	3.17444105e+01	1.69207595e+01	8.50611882e-05	3.17854254e+02	-9.31016276e-18	1.94393524e+02	1.02508538e+02	9.16138939e-04	2.98343435e+01	1.65190303e+01	7.99319713e-05	3.09688040e+02	-9.16655904e-18	1.94393502e+02	1.02149864e+02	8.59846758e-04	2.80353230e+01	1.60946284e+01	7.51002697e-05	3.01096494e+02	-9.02144762e-18	1.94393483e+02	1.01717732e+02	8.06637782e-04	2.63406530e+01	1.56481218e+01	7.05480993e-05	2.92105556e+02	-9.12415547e-18	1.94393467e+02	1.01206530e+02	7.56337886e-04	2.47440257e+01	1.51808587e+01	6.62585164e-05	2.82755527e+02	-9.24345465e-18	1.94393454e+02	1.00612114e+02	7.08783611e-04	2.32394983e+01	1.46949335e+01	6.22155547e-05	2.73098934e+02	-9.37774502e-18	1.94393444e+02	9.99321527e+01	6.63821880e-04	2.18214707e+01	1.41930759e+01	5.84041659e-05	2.63197229e+02	-9.52350975e-18	1.94393435e+02	9.91663007e+01	6.21309481e-04	2.04846650e+01	1.36784798e+01	5.48101637e-05	2.53116862e+02	-9.44665441e-18	1.94393427e+02	9.83161840e+01	5.81112185e-04	1.92241054e+01	1.31545985e+01	5.14201707e-05	2.42925310e+02	-9.23306537e-18	1.94393421e+02	9.73852195e+01	5.43103406e-04	1.80351000e+01	1.26249390e+01	4.82215690e-05	2.32687607e+02	-8.94738329e-18	1.94393416e+02	9.63783071e+01	5.07162374e-04	1.69132231e+01	1.20928808e+01	4.52024532e-05	2.22463713e+02	-8.59655484e-18	1.94393411e+02	9.53014661e+01	4.73180767e-04	1.58542990e+01	1.15615404e+01	4.23515857e-05	2.12306990e+02	-8.25308099e-18	1.94393407e+02	9.41614772e+01	4.41076573e-04	1.48543864e+01	1.10336909e+01	3.96583552e-05	2.02263307e+02	-7.98129145e-18	1.94393404e+02	9.29655335e+01	4.10766257e-04	1.39097633e+01	1.05117161e+01	3.71127374e-05	1.92370585e+02	-7.71585932e-18	1.94393401e+02	9.17209191e+01	3.82165270e-04	1.30169138e+01	9.99758687e+00	3.47052572e-05	1.82658910e+02	-7.45707731e-18	1.94393399e+02	9.04347445e+01	3.55188627e-04	1.21725147e+01	9.49286669e+00	3.24269536e-05	1.73151011e+02	-7.20603943e-18	1.94393396e+02	8.91137461e+01	3.29751504e-04	1.13734230e+01	8.99873685e+00	3.02693465e-05	1.63862959e+02	-6.96366540e-18	1.94393394e+02	8.77641405e+01	3.05769808e-04	1.06166643e+01	8.51603259e+00	2.82244052e-05	1.54804964e+02	-6.73075526e-18	1.94393393e+02	8.63915285e+01	2.83160685e-04	9.89942201e+00	8.04528447e+00	2.62845182e-05	1.45982170e+02	-6.50738352e-18	1.94393391e+02	8.50008367e+01	2.61842957e-04	9.21902645e+00	7.58675982e+00	2.44424649e-05	1.37395410e+02	-6.18091030e-18	1.94393390e+02	8.35962918e+01	2.41737496e-04	8.57294506e+00	7.14050202e+00	2.26913890e-05	1.29041893e+02	-5.83820881e-18	1.94393389e+02	8.21814109e+01	2.22767507e-04	7.95877306e+00	6.70636591e+00	2.10247729e-05	1.20915786e+02	-5.46440301e-18	1.94393388e+02	8.07590098e+01	2.04858767e-04	7.37422448e+00	6.28404845e+00	1.94364132e-05	1.13008725e+02	-5.10205727e-18	1.94393386e+02	7.93312195e+01	1.87939785e-04	6.81712353e+00	5.87311488e+00	1.79203980e-05	1.05310222e+02	-4.75020150e-18	1.94393386e+02	7.78995061e+01	1.71941921e-04	6.28539667e+00	5.47302016e+00	1.64710843e-05	9.78080019e+01	-4.40783399e-18	1.94393385e+02	7.64646903e+01	1.56799460e-04	5.77706468e+00	5.08312638e+00	1.50830778e-05	9.04882656e+01	-4.07501035e-18	1.94393384e+02	7.50269704e+01	1.42449639e-04	5.29023557e+00	4.70271636e+00	1.37512121e-05	8.33358846e+01	-3.77157722e-18	1.94393383e+02	7.35859365e+01	1.28832664e-04	4.82309727e+00	4.33100386e+00	1.24705299e-05	7.63345437e+01	-3.51384692e-18	1.94393382e+02	7.21405829e+01	1.15891672e-04	4.37391107e+00	3.96714099e+00	1.12362643e-05	6.94668282e+01	-3.22070223e-18	1.94393382e+02	7.06893126e+01	1.03572695e-04	3.94100501e+00	3.61022268e+00	1.00438213e-05	6.27142653e+01	-2.89254596e-18	1.94393381e+02	6.92299337e+01	9.18245844e-05	3.52276780e+00	3.25928892e+00	8.88876249e-06	5.60573192e+01	-2.57016509e-18	1.94393380e+02	6.77596463e+01	8.05989048e-05	3.11764271e+00	2.91332440e+00	7.76678857e-06	4.94753411e+01	-2.31399851e-18	1.94393379e+02	6.62750187e+01	6.98497763e-05	2.72412181e+00	2.57125600e+00	6.67372346e-06	4.29464724e+01	-2.02688046e-18	1.94393379e+02	6.47719486e+01	5.95336105e-05	2.34074038e+00	2.23194772e+00	5.60549865e-06	3.64474952e+01	-1.73947960e-18	1.94393378e+02	6.32456065e+01	4.96086337e-05	1.96607143e+00	1.89419292e+00	4.55813811e-06	2.99536237e+01	-1.45139413e-18	1.94393377e+02	6.16903601e+01	4.00344016e-05	1.59872041e+00	1.55670346e+00	3.52774344e-06	2.34382244e+01	-1.13767593e-18	1.94393377e+02	6.00996713e+01	3.07717013e-05	1.23732000e+00	1.21809519e+00	2.51047941e-06	1.68724448e+01	-8.22146114e-19	1.94393376e+02	5.84659548e+01	2.17781569e-05	8.80525026e-01	8.76868637e-01	1.50255965e-06	1.02247307e+01	-5.03102556e-19	1.94393375e+02	5.67803997e+01	1.29993231e-05	5.27007459e-01	5.31383908e-01	5.00232578e-07	3.46019519e+00	-1.70278589e-19	1.94393375e+02	5.50327221e+01	4.34791119e-06	1.75451470e-01	1.79827919e-01	