VARIABLES = "y", "u", "v", "P", "T", "nuT", "yplus", "uplus"
ZONE t="turbulent profile"
9.70411804e-01	7.06330000e+02	1.26648296e-16	1.89000000e+02	4.96530121e+01	3.12179999e-07	3.92725780e+04	1.95328764e+01	9.12986334e-01	7.06330000e+02	-2.14673946e-16	1.89000000e+02	4.96530121e+01	3.12179999e-07	3.69485685e+04	1.95328764e+01	8.58959096e-01	7.06330000e+02	-1.67924894e-16	1.89000000e+02	4.96530121e+01	3.12179999e-07	3.47620855e+04	1.95328764e+01	8.08128996e-01	7.06330000e+02	3.92041899e-16	1.89000000e+02	4.96530121e+01	3.12179999e-07	3.27049907e+04	1.95328764e+01	7.60306837e-01	7.06330000e+02	3.70553635e-16	1.89000000e+02	4.96530121e+01	3.12179999e-07	3.07696274e+04	1.95328764e+01	7.15314621e-01	7.06330000e+02	2.16246198e-16	1.89000000e+02	4.96530121e+01	3.12179999e-07	2.89487918e+04	1.95328764e+01	6.72984883e-01	7.06330001e+02	-7.34483815e-17	1.89000000e+02	4.96530121e+01	3.12179999e-07	2.72357068e+04	1.95328764e+01	6.33160065e-01	7.06330000e+02	3.86691805e-16	1.89000000e+02	4.96530121e+01	3.12179999e-07	2.56239959e+04	1.95328764e+01	5.95691936e-01	7.06330000e+02	-2.28201472e-16	1.88999995e+02	4.96530118e+01	3.12179999e-07	2.41076602e+04	1.95328764e+01	5.60441037e-01	7.06330001e+02	6.35645181e-17	1.88999992e+02	4.96530115e+01	3.12179999e-07	2.26810559e+04	1.95328764e+01	5.27276158e-01	7.06329995e+02	1.08750870e-16	1.89000057e+02	4.96530164e+01	3.12180001e-07	2.13388728e+04	1.95328763e+01	4.96073857e-01	7.06329981e+02	1.56835427e-17	1.89000185e+02	4.96530260e+01	3.12180004e-07	2.00761153e+04	1.95328759e+01	4.66717996e-01	7.06330033e+02	-1.32204704e-16	1.88999697e+02	4.96529894e+01	3.12180013e-07	1.88880832e+04	1.95328773e+01	4.39099308e-01	7.06330251e+02	4.81497087e-16	1.88997654e+02	4.96528361e+01	3.12180056e-07	1.77703546e+04	1.95328834e+01	4.13114995e-01	7.06330174e+02	-9.86319339e-17	1.88998369e+02	4.96528897e+01	3.12180093e-07	1.67187691e+04	1.95328812e+01	3.88668340e-01	7.06328355e+02	1.71992335e-16	1.89015414e+02	4.96541693e+01	3.12180366e-07	1.57294127e+04	1.95328309e+01	3.65668350e-01	7.06325511e+02	-2.23856936e-16	1.89042060e+02	4.96561694e+01	3.12180942e-07	1.47986028e+04	1.95327523e+01	3.44029416e-01	7.06331129e+02	6.47596270e-17	1.88989387e+02	4.96522129e+01	3.12181276e-07	1.39228748e+04	1.95329076e+01	3.23670996e-01	7.06357472e+02	3.42486896e-16	1.88742664e+02	4.96336906e+01	3.12183889e-07	1.30989693e+04	1.95336361e+01	3.04517314e-01	7.06384701e+02	4.45794057e-16	1.88487727e+02	4.96145450e+01	3.12188457e-07	1.23238196e+04	1.95343891e+01	2.86497078e-01	7.06335095e+02	1.29792761e-16	1.88966329e+02	4.96516958e+01	3.12190695e-07	1.15945404e+04	1.95330173e+01	2.69543215e-01	7.06109565e+02	2.27258064e-16	1.91099683e+02	4.98119466e+01	3.12192007e-07	1.09084173e+04	1.95267805e+01	2.53592620e-01	7.05682860e+02	-1.20258215e-16	1.95055952e+02	5.01039661e+01	3.12203171e-07	1.02628966e+04	1.95149804e+01	2.38585923e-01	7.05285785e+02	-4.83344677e-17	1.98800351e+02	5.03788038e+01	3.12210394e-07	9.65557534e+03	1.95039996e+01	2.24467269e-01	7.05098573e+02	1.87641251e-16	2.00528599e+02	5.05028990e+01	3.12223398e-07	9.08419323e+03	1.94988225e+01	2.11184106e-01	7.05098839e+02	-8.69777684e-17	2.00510738e+02	5.05005304e+01	3.12232976e-07	8.54662346e+03	1.94988298e+01	1.98686992e-01	7.05174522e+02	8.29957834e-17	1.99800337e+02	5.04493993e+01	3.12237567e-07	8.04086509e+03	1.95009228e+01	1.86929413e-01	7.05234130e+02	8.12885358e-17	1.99241181e+02	5.04090436e+01	3.12239673e-07	7.56503572e+03	1.95025712e+01	1.75867604e-01	7.05266570e+02	-2.49771458e-17	1.98937404e+02	5.03871329e+01	3.12241399e-07	7.11736417e+03	1.95034683e+01	1.65460394e-01	7.05289438e+02	-1.33077424e-16	1.98723043e+02	5.03716352e+01	3.12242149e-07	6.69618425e+03	1.95041007e+01	1.55669045e-01	7.05309636e+02	4.00037233e-16	1.98533485e+02	5.03579213e+01	3.12242727e-07	6.29992823e+03	1.95046592e+01	1.46457112e-01	7.05326752e+02	7.28050520e-17	1.98372998e+02	5.03462922e+01	3.12243255e-07	5.92712119e+03	1.95051326e+01	1.37790309e-01	7.05341025e+02	1.20393740e-17	1.98239148e+02	5.03365902e+01	3.12243799e-07	5.57637556e+03	1.95055273e+01	1.29636375e-01	7.05353288e+02	8.09566428e-17	1.98124155e+02	5.03282504e+01	3.12243812e-07	5.24638574e+03	1.95058664e+01	1.21964962e-01	7.05363972e+02	3.16458648e-17	1.98024009e+02	5.03209840e+01	3.12243873e-07	4.93592356e+03	1.95061618e+01	1.14747515e-01	7.05373337e+02	-7.01885201e-17	1.97936237e+02	5.03146098e+01	3.12243914e-07	4.64383339e+03	1.95064208e+01	1.07957171e-01	7.05381605e+02	2.56201293e-16	1.97858700e+02	5.03089831e+01	3.12243922e-07	4.36902808e+03	1.95066495e+01	1.01568655e-01	7.05388939e+02	2.21689035e-16	1.97789760e+02	5.03039927e+01	3.12243912e-07	4.11048476e+03	1.95068523e+01	9.55581887e-02	7.05395481e+02	-5.21186694e-17	1.97728134e+02	5.02995420e+01	3.12244017e-07	3.86724111e+03	1.95070332e+01	8.99033997e-02	7.05401331e+02	5.21098457e-17	1.97672775e+02	5.02955652e+01	3.12244845e-07	3.63839173e+03	1.95071950e+01	8.45832408e-02	7.05406560e+02	1.65610321e-17	1.97622836e+02	5.02920129e+01	3.12246078e-07	3.42308483e+03	1.95073396e+01	7.95779096e-02	7.05411238e+02	-9.19919029e-17	1.97577623e+02	5.02888412e+01	3.12248059e-07	3.22051901e+03	1.95074689e+01	7.48687759e-02	7.05415406e+02	-1.44866757e-16	1.97536552e+02	5.02860157e+01	3.12251433e-07	3.02994031e+03	1.95075842e+01	7.04383117e-02	7.05419103e+02	-1.58628786e-16	1.97499125e+02	5.02835126e+01	3.12256803e-07	2.85063937e+03	1.95076864e+01	6.62700264e-02	7.05422362e+02	-9.42836334e-17	1.97464919e+02	5.02813082e+01	3.12264797e-07	2.68194881e+03	1.95077766e+01	6.23484052e-02	7.05425206e+02	6.26979758e-17	1.97433574e+02	5.02793906e+01	3.12275144e-07	2.52324075e+03	1.95078552e+01	5.86588514e-02	7.05427637e+02	1.68564693e-18	1.97404795e+02	5.02777480e+01	3.12287373e-07	2.37392446e+03	1.95079224e+01	5.51876320e-02	7.05429656e+02	-2.95289122e-17	1.97378332e+02	5.02763698e+01	3.12301314e-07	2.23344417e+03	1.95079783e+01	5.19218269e-02	7.05431265e+02	1.28432411e-16	1.97353968e+02	5.02752568e+01	3.12316722e-07	2.10127699e+03	1.95080228e+01	4.88492803e-02	7.05432455e+02	4.59827306e-17	1.97331509e+02	5.02744190e+01	3.12333586e-07	1.97693099e+03	1.95080557e+01	4.59585560e-02	7.05433235e+02	4.92925968e-17	1.97310782e+02	5.02738694e+01	3.12351898e-07	1.85994335e+03	1.95080772e+01	4.32388943e-02	7.05433611e+02	-3.41504745e-17	1.97291625e+02	5.02736143e+01	3.12371859e-07	1.74987860e+03	1.95080877e+01	4.06801723e-02	7.05433584e+02	-6.76688603e-17	1.97273894e+02	5.02736536e+01	3.12393333e-07	1.64632709e+03	1.95080869e+01	3.82728663e-02	7.05433176e+02	-3.81818681e-17	1.97257459e+02	5.02739730e+01	3.12414729e-07	1.54890339e+03	1.95080756e+01	3.60080159e-02	7.05432461e+02	-1.61864938e-16	1.97242205e+02	5.02745367e+01	3.12434098e-07	1.45724486e+03	1.95080558e+01	3.38771912e-02	7.05431530e+02	-6.42655242e-17	1.97228034e+02	5.02752926e+01	3.12450645e-07	1.37101036e+03	1.95080301e+01	3.18724610e-02	7.05430452e+02	6.23264104e-17	1.97214854e+02	5.02761773e+01	3.12465201e-07	1.28987890e+03	1.95080003e+01	2.99863635e-02	7.05429323e+02	1.46301803e-17	1.97202584e+02	5.02771141e+01	3.12487539e-07	1.21354851e+03	1.95079691e+01	2.82118784e-02	7.05428298e+02	-2.10906530e-16	1.97191146e+02	5.02780090e+01	3.12492371e-07	1.14173508e+03	1.95079407e+01	2.65424009e-02	7.05427222e+02	-1.33275917e-16	1.97180442e+02	5.02790259e+01	3.12171044e-07	1.07417130e+03	1.95079110e+01	2.49717171e-02	7.05424891e+02	-1.10797896e-16	1.97170384e+02	5.02806949e+01	3.11931476e-07	1.01060571e+03	1.95078465e+01	2.34939806e-02	7.05425464e+02	-5.66562523e-17	1.97160227e+02	5.02777688e+01	3.23451990e-07	9.50801694e+02	1.95078623e+01	2.21036912e-02	7.05455623e+02	7.22970584e-18	1.97148749e+02	5.02534421e+01	5.92334597e-06	8.94536664e+02	1.95086964e+01	2.07956742e-02	7.05472241e+02	4.29270713e-17	1.97126244e+02	5.02790962e+01	2.94342647e-04	8.41601199e+02	1.95091559e+01	1.95650608e-02	7.05012743e+02	3.59876257e-17	1.97131848e+02	5.07581600e+01	2.37928629e-03	7.91798259e+02	1.94964489e+01	1.84072706e-02	7.03496703e+02	6.82165302e-17	1.97147341e+02	5.21314515e+01	6.17213838e-03	7.44942475e+02	1.94545243e+01	1.73179943e-02	7.01034795e+02	5.49518903e-17	1.97128764e+02	5.41797015e+01	9.43843318e-03	7.00859450e+02	1.93864426e+01	1.62931774e-02	6.97871165e+02	4.79895105e-17	1.97121301e+02	5.66473438e+01	1.23426497e-02	6.59385097e+02	1.92989555e+01	1.53290055e-02	6.94156638e+02	3.43991842e-17	1.97110887e+02	5.94141318e+01	1.49665237e-02	6.20365048e+02	1.91962338e+01	1.44218897e-02	6.90010177e+02	1.28361551e-17	1.97101219e+02	6.23929765e+01	1.73344383e-02	5.83654060e+02	1.90815674e+01	1.35684537e-02	6.85523462e+02	4.39304004e-17	1.97091000e+02	6.55238713e+01	1.94577799e-02	5.49115494e+02	1.89574916e+01	1.27655210e-02	6.80768243e+02	6.53355043e-17	1.97080679e+02	6.87617028e+01	2.13451421e-02	5.16620797e+02	1.88259906e+01	1.20101028e-02	6.75801771e+02	7.26752049e-17	1.97070393e+02	7.20717684e+01	2.30050217e-02	4.86049013e+02	1.86886476e+01	1.12993876e-02	6.70670369e+02	7.03136601e-17	1.97060307e+02	7.54269148e+01	2.44466087e-02	4.57286360e+02	1.85467436e+01	1.06307299e-02	6.65411918e+02	8.92580323e-17	1.97050539e+02	7.88056591e+01	2.56799366e-02	4.30225774e+02	1.84013262e+01	1.00016409e-02	6.60057608e+02	1.06214333e-16	1.97041179e+02	8.21909021e+01	2.67157919e-02	4.04766534e+02	1.82532579e+01	9.40977901e-03	6.54633224e+02	1.19567277e-16	1.97032284e+02	8.55690064e+01	2.75655388e-02	3.80813876e+02	1.81032518e+01	8.85294137e-03	6.49160127e+02	1.22509626e-16	1.97023892e+02	8.89291096e+01	2.82410067e-02	3.58278650e+02	1.79518986e+01	8.32905531e-03	6.43656041e+02	1.06253027e-16	1.97016016e+02	9.22625798e+01	2.87544396e-02	3.37076974e+02	1.77996884e+01	7.83617088e-03	6.38135578e+02	9.23054621e-17	1.97008657e+02	9.55626575e+01	2.91170776e-02	3.17129935e+02	1.76470253e+01	7.37245350e-03	6.32610726e+02	7.89788356e-17	1.97001809e+02	9.88241269e+01	2.93409368e-02	2.98363287e+02	1.74942408e+01	6.93617719e-03	6.27091336e+02	7.10495633e-17	1.96995457e+02	1.02043000e+02	2.94378000e-02	2.80707179e+02	1.73416074e+01	6.52571806e-03	6.21585417e+02	6.63052224e-17	1.96989578e+02	1.05216303e+02	2.94190979e-02	2.64095893e+02	1.71893465e+01	6.13954835e-03	6.16099442e+02	5.85686818e-17	1.96984149e+02	1.08341896e+02	2.92957994e-02	2.48467600e+02	1.70376372e+01	5.77623069e-03	6.10638577e+02	4.90765128e-17	1.96979144e+02	1.11418336e+02	2.90783701e-02	2.33764129e+02	1.68866222e+01	5.43441278e-03	6.05206870e+02	5.15091586e-17	1.96974537e+02	1.14444749e+02	2.87767541e-02	2.19930754e+02	1.67364136e+01	5.11282232e-03	5.99807419e+02	5.27365590e-17	1.96970302e+02	1.17420735e+02	2.84002798e-02	2.06915984e+02	1.65870969e+01	4.81026234e-03	5.94442524e+02	5.11239571e-17	1.96966413e+02	1.20346268e+02	2.79579423e-02	1.94671378e+02	1.64387360e+01	4.52560666e-03	5.89113819e+02	4.83407116e-17	1.96962844e+02	1.23221630e+02	2.74580026e-02	1.83151359e+02	1.62913757e+01	4.25779577e-03	5.83822350e+02	5.45201319e-17	1.96959572e+02	1.26047354e+02	2.69081643e-02	1.72313049e+02	1.61450453e+01	4.00583285e-03	5.78568675e+02	6.00645561e-17	1.96956574e+02	1.28824175e+02	2.63155853e-02	1.62116106e+02	1.59997599e+01	3.76878006e-03	5.73352933e+02	6.41426047e-17	1.96953827e+02	1.31552988e+02	2.56868928e-02	1.52522577e+02	1.58555236e+01	3.54575508e-03	5.68174910e+02	6.78682548e-17	1.96951313e+02	1.34234809e+02	2.50282026e-02	1.43496753e+02	1.57123304e+01	3.33592777e-03	5.63034095e+02	7.15490542e-17	1.96949013e+02	1.36870754e+02	2.43451398e-02	1.35005039e+02	1.55701661e+01	3.13851714e-03	5.57929726e+02	7.48685285e-17	1.96946908e+02	1.39462005e+02	2.36428616e-02	1.27015829e+02	1.54290096e+01	2.95278840e-03	5.52860829e+02	7.79451388e-17	1.96944982e+02	1.42009796e+02	2.29260810e-02	1.19499384e+02	1.52888342e+01	2.77805026e-03	5.47826256e+02	8.14810162e-17	1.96943221e+02	1.44515393e+02	2.21990910e-02	1.12427729e+02	1.51496079e+01	2.61365231e-03	5.42824706e+02	8.27280601e-17	1.96941610e+02	1.46980083e+02	2.14657889e-02	1.05774542e+02	1.50112948e+01	2.45898266e-03	5.37854750e+02	8.15334336e-17	1.96940138e+02	1.49405164e+02	2.07296999e-02	9.95150595e+01	1.48738555e+01	2.31346559e-03	5.32914854e+02	8.07842495e-17	1.96938791e+02	1.51791931e+02	1.99940052e-02	9.36259818e+01	1.47372474e+01	2.17655950e-03	5.28003391e+02	8.04312515e-17	1.96937561e+02	1.54141675e+02	1.92615876e-02	8.80853906e+01	1.46014256e+01	2.04775479e-03	5.23118659e+02	8.00643276e-17	1.96936435e+02	1.56455672e+02	1.85350266e-02	8.28726624e+01	1.44663431e+01	1.92657204e-03	5.18258886e+02	7.92724690e-17	1.96935405e+02	1.58735182e+02	1.78166191e-02	7.79683950e+01	1.43319507e+01	1.81256020e-03	5.13422233e+02	7.83936125e-17	1.96934464e+02	1.60981450e+02	1.71083982e-02	7.33543343e+01	1.41981978e+01	1.70529490e-03	5.08606794e+02	7.99342018e-17	1.96933603e+02	1.63195702e+02	1.64121519e-02	6.90133063e+01	1.40650314e+01	1.60437688e-03	5.03810585e+02	8.21604518e-17	1.96932815e+02	1.65379156e+02	1.57294400e-02	6.49291527e+01	1.39323969e+01	1.50943053e-03	4.99031535e+02	8.18621501e-17	1.96932094e+02	1.67533018e+02	1.50616093e-02	6.10866727e+01	1.38002369e+01	1.42010244e-03	4.94267464e+02	8.14891945e-17	1.96931434e+02	1.69658499e+02	1.44098093e-02	5.74715638e+01	1.36684911e+01	1.33606012e-03	4.89516056e+02	7.97283209e-17	1.96930829e+02	1.71756817e+02	1.37750049e-02	5.40703700e+01	1.35370955e+01	1.25699076e-03	4.84774822e+02	7.80835434e-17	1.96930275e+02	1.73829219e+02	1.31579896e-02	5.08704320e+01	1.34059812e+01	1.18260006e-03	4.80041046e+02	7.65462618e-17	1.96929767e+02	1.75876993e+02	1.25593977e-02	4.78598395e+01	1.32750732e+01	1.11261111e-03	4.75311729e+02	7.49156844e-17	1.96929301e+02	1.77901493e+02	1.19797154e-02	4.50273858e+01	1.31442884e+01	1.04676342e-03	4.70583499e+02	7.42850650e-17	1.96928872e+02	1.79904166e+02	1.14192907e-02	4.23625289e+01	1.30135338e+01	9.84811900e-04	4.65852522e+02	7.32249130e-17	1.96928478e+02	1.81886584e+02	1.08783611e-02	3.98553501e+01	1.28827032e+01	9.26525952e-04	4.61114373e+02	7.34387793e-17	1.96928115e+02	1.83850480e+02	1.03570562e-02	3.74965171e+01	1.27516742e+01	8.71688631e-04	4.56363900e+02	7.51170244e-17	1.96927781e+02	1.85797798e+02	9.85540324e-03	3.52772500e+01	1.26203045e+01	8.20095829e-04	4.51595022e+02	7.68885523e-17	1.96927472e+02	1.87730742e+02	9.37333591e-03	3.31892886e+01	1.24884257e+01	7.71555510e-04	4.46800522e+02	7.69248979e-17	1.96927187e+02	1.89651848e+02	8.91070452e-03	3.12248613e+01	1.23558385e+01	7.25887002e-04	4.41971758e+02	7.65605845e-17	1.96926922e+02	1.91564053e+02	8.46728486e-03	2.93766562e+01	1.22223036e+01	6.82920324e-04	4.37098348e+02	7.52979529e-17	1.96926676e+02	1.93470787e+02	8.04278687e-03	2.76377942e+01	1.20875342e+01	6.42495547e-04	4.32167768e+02	7.44206300e-17	1.96926448e+02	1.95376068e+02	7.63686262e-03	2.60018030e+01	1.19511837e+01	6.04462207e-04	4.27164885e+02	7.50127998e-17	1.96926235e+02	1.97284619e+02	7.24911396e-03	2.44625932e+01	1.18128338e+01	5.68678739e-04	4.22071407e+02	7.60961879e-17	1.96926036e+02	1.99201984e+02	6.87909933e-03	2.30144358e+01	1.16719786e+01	5.35011954e-04	4.16865230e+02	7.70932246e-17	1.96925851e+02	2.01134659e+02	6.52634015e-03	2.16519406e+01	1.15280068e+01	5.03336541e-04	4.11519704e+02	7.61002297e-17	1.96925678e+02	2.03090215e+02	6.19032656e-03	2.03700362e+01	1.13801814e+01	4.73534599e-04	4.06002800e+02	7.54578062e-17	1.96925517e+02	2.05077420e+02	5.87052259e-03	1.91639512e+01	1.12276167e+01	4.45495204e-04	4.00276231e+02	7.48159574e-17	1.96925367e+02	2.07106303e+02	5.56637078e-03	1.80291966e+01	1.10692540e+01	4.19113989e-04	3.94294575e+02	7.35453218e-17	1.96925229e+02	2.09188160e+02	5.27729639e-03	1.69615485e+01	1.09038370e+01	3.94292761e-04	3.88004522e+02	7.24081359e-17	1.96925101e+02	2.11335419e+02	5.00271100e-03	1.59570331e+01	1.07298916e+01	3.70939133e-04	3.81344465e+02	7.10261917e-17	1.96924985e+02	2.13561299e+02	4.74201581e-03	1.50119114e+01	1.05457142e+01	3.48966179e-04	3.74244822e+02	6.92990991e-17	1.96924880e+02	2.15879130e+02	4.49460431e-03	1.41226657e+01	1.03493804e+01	3.28292114e-04	3.66629546e+02	6.74827737e-17	1.96924786e+02	2.18301226e+02	4.25986454e-03	1.32859860e+01	1.01387873e+01	3.08839988e-04	3.58419624e+02	6.55747902e-17	1.96924704e+02	2.20837174e+02	4.03718069e-03	1.24987582e+01	9.91174978e+00	2.90537397e-04	3.49539309e+02	6.38648428e-17	1.96924633e+02	2.23491499e+02	3.82593418e-03	1.17580522e+01	9.66617322e+00	2.73316217e-04	3.39925647e+02	6.06366064e-17	1.96924572e+02	2.26260892e+02	3.62550434e-03	1.10611108e+01	9.40031665e+00	2.57112349e-04	3.29541005e+02	5.93303877e-17	1.96924521e+02	2.29131516e+02	3.43526926e-03	1.04053400e+01	9.11313936e+00	2.41865480e-04	3.18386687e+02	5.82780895e-17	1.96924479e+02	2.32077290e+02	3.25460792e-03	9.78829905e+00	8.80467743e+00	2.27518861e-04	3.06513899e+02	5.87841534e-17	1.96924445e+02	2.35060237e+02	3.08290539e-03	9.20769120e+00	8.47634691e+00	2.14019091e-04	2.94027336e+02	5.89421197e-17	1.96924417e+02	2.38033544e+02	2.91956224e-03	8.66135533e+00	8.13104301e+00	2.01315922e-04	2.81078230e+02	5.91541308e-17	1.96924394e+02	2.40946953e+02	2.76400774e-03	8.14725792e+00	7.77294795e+00	1.89362073e-04	2.67847638e+02	5.93218163e-17	1.96924376e+02	2.43753043e+02	2.61571323e-03	7.66348550e+00	7.40706867e+00	1.78113050e-04	2.54524835e+02	5.73664080e-17	1.96924361e+02	2.46412500e+02	2.47420067e-03	7.20823740e+00	7.03863936e+00	1.67526982e-04	2.41287472e+02	5.55291325e-17	1.96924348e+02	2.48897101e+02	2.33916288e-03	6.77981909e+00	6.67257282e+00	1.57564468e-04	2.28287790e+02	5.35660779e-17	1.96924338e+02	2.51190236e+02	2.21042288e-03	6.37663602e+00	6.31307913e+00	1.48188425e-04	2.15645773e+02	5.10276328e-17	1.96924330e+02	2.53285670e+02	2.08780135e-03	5.99718744e+00	5.96347633e+00	1.39363955e-04	2.03448433e+02	4.80813115e-17	1.96924322e+02	2.55185370e+02	1.97111443e-03	5.64006103e+00	5.62617062e+00	1.31058213e-04	1.91753200e+02	4.53787423e-17	1.96924316e+02	2.56897107e+02	1.86017278e-03	5.30392755e+00	5.30275020e+00	1.23240283e-04	1.80593174e+02	4.29262532e-17	1.96924310e+02	2.58432316e+02	1.75478168e-03	4.98753582e+00	4.99413044e+00	1.15881067e-04	1.69982661e+02	3.98726304e-17	1.96924305e+02	2.59804413e+02	1.65474149e-03	4.68970826e+00	4.70070691e+00	1.08953172e-04	1.59922141e+02	3.70559508e-17	1.96924301e+02	2.61027577e+02	1.55984869e-03	4.40933626e+00	4.42249292e+00	1.02430813e-04	1.50402362e+02	3.44047031e-17	1.96924297e+02	2.62115935e+02	1.46989708e-03	4.14537630e+00	4.15923259e+00	9.62897123e-05	1.41407507e+02	3.18313358e-17	1.96924293e+02	2.63083041e+02	1.38467910e-03	3.89684588e+00	3.91048852e+00	9.05070119e-05	1.32917565e+02	2.93877657e-17	1.96924290e+02	2.63941596e+02	1.30398723e-03	3.66281992e+00	3.67570734e+00	8.50611882e-05	1.24910049e+02	2.74081502e-17	1.96924287e+02	2.64703292e+02	1.22761521e-03	3.44242737e+00	3.45426721e+00	7.99319713e-05	1.17361216e+02	2.55569737e-17	1.96924284e+02	2.65378773e+02	1.15535929e-03	3.23484789e+00	3.24551149e+00	7.51002697e-05	1.10246909e+02	2.38049106e-17	1.96924281e+02	2.65977646e+02	1.08701915e-03	3.03930887e+00	3.04877216e+00	7.05480993e-05	1.03543127e+02	2.23040076e-17	1.96924279e+02	2.66508533e+02	1.02239888e-03	2.85508248e+00	2.86338552e+00	6.62585164e-05	9.72264073e+01	2.10289373e-17	1.96924276e+02	2.66979132e+02	9.61307618e-04	2.68148300e+00	2.68870273e+00	6.22155547e-05	9.12740631e+01	1.98318252e-17	1.96924274e+02	2.67396306e+02	9.03560091e-04	2.51786429e+00	2.52409638e+00	5.84041659e-05	8.56643246e+01	1.86798252e-17	1.96924272e+02	2.67766151e+02	8.48977070e-04	2.36361734e+00	2.36896446e+00	5.48101637e-05	8.03764155e+01	1.75765701e-17	1.96924271e+02	2.68094078e+02	7.97385638e-04	2.21816802e+00	2.22273242e+00	5.14201707e-05	7.53905829e+01	1.64327731e-17	1.96924269e+02	2.68384882e+02	7.48619368e-04	2.08097496e+00	2.08485402e+00	4.82215690e-05	7.06880959e+01	1.53441646e-17	1.96924267e+02	2.68642808e+02	7.02518417e-04	1.95152751e+00	1.95481126e+00	4.52024532e-05	6.62512240e+01	1.43094753e-17	1.96924266e+02	2.68871620e+02	6.58929533e-04	1.82934386e+00	1.83211384e+00	4.23515857e-05	6.20632034e+01	1.33313676e-17	1.96924264e+02	2.69074644e+02	6.17705996e-04	1.71396921e+00	1.71629816e+00	3.96583552e-05	5.81081936e+01	1.24538968e-17	1.96924263e+02	2.69254824e+02	5.78707510e-04	1.60497414e+00	1.60692617e+00	3.71127374e-05	5.43712317e+01	1.17120166e-17	1.96924262e+02	2.69414765e+02	5.41800055e-04	1.50195295e+00	1.50358409e+00	3.47052572e-05	5.08381834e+01	1.10303824e-17	1.96924261e+02	2.69556772e+02	5.06855692e-04	1.40452220e+00	1.40588104e+00	3.24269536e-05	4.74956929e+01	1.03677430e-17	1.96924259e+02	2.69682882e+02	4.73752360e-04	1.31231922e+00	1.31344768e+00	3.02693465e-05	4.43311357e+01	9.68764710e-18	1.96924258e+02	2.69794899e+02	4.42373640e-04	1.22500084e+00	1.22593490e+00	2.82244052e-05	4.13325705e+01	9.06626007e-18	1.96924257e+02	2.69894417e+02	4.12608508e-04	1.14224204e+00	1.14301246e+00	2.62845182e-05	3.84886946e+01	8.45101056e-18	1.96924256e+02	2.69982847e+02	3.84351082e-04	1.06373479e+00	1.06436781e+00	2.44424649e-05	3.57887985e+01	7.86124673e-18	1.96924255e+02	2.70061436e+02	3.57500362e-04	9.89186865e-01	9.89704781e-01	2.26913890e-05	3.32227262e+01	7.30516551e-18	1.96924255e+02	2.70131289e+02	3.31959960e-04	9.18320801e-01	9.18742521e-01	2.10247729e-05	3.07808344e+01	6.77621445e-18	1.96924254e+02	2.70193378e+02	3.07637842e-04	8.50872827e-01	8.51214353e-01	1.94364132e-05	2.84539552e+01	6.27269974e-18	1.96924253e+02	2.70248566e+02	2.84446060e-04	7.86591889e-01	7.86866749e-01	1.79203980e-05	2.62333606e+01	5.79263475e-18	1.96924252e+02	2.70297616e+02	2.62300492e-04	7.25238735e-01	7.25458341e-01	1.64710843e-05	2.41107277e+01	5.33198594e-18	1.96924252e+02	2.70341199e+02	2.41120589e-04	6.66584991e-01	6.66758970e-01	1.50830778e-05	2.20781069e+01	4.90485323e-18	1.96924251e+02	2.70379906e+02	2.20829119e-04	6.10412350e-01	6.10548800e-01	1.37512121e-05	2.01278913e+01	4.48853863e-18	1.96924250e+02	2.70414261e+02	2.01351924e-04	5.56511729e-01	5.56617464e-01	1.24705299e-05	1.82527867e+01	4.08445057e-18	1.96924250e+02	2.70444724e+02	1.82617676e-04	5.04682504e-01	5.04763252e-01	1.12362643e-05	1.64457840e+01	3.69451463e-18	1.96924249e+02	2.70471695e+02	1.64557643e-04	4.54731759e-01	4.54792331e-01	1.00438213e-05	1.47001320e+01	3.31996966e-18	1.96924248e+02	2.70495529e+02	1.47105459e-04	4.06473576e-01	4.06518004e-01	8.88876249e-06	1.30093118e+01	2.94652867e-18	1.96924248e+02	2.70516532e+02	1.30196899e-04	3.59728331e-01	3.59759997e-01	7.76678857e-06	1.13670116e+01	2.57926910e-18	1.96924247e+02	2.70534971e+02	1.13769661e-04	3.14322032e-01	3.14343767e-01	6.67372346e-06	9.76710323e+00	2.22010799e-18	1.96924247e+02	2.70551075e+02	9.77631482e-05	2.70085673e-01	2.70099841e-01	5.60549865e-06	8.20361827e+00	1.85537548e-18	1.96924246e+02	2.70565041e+02	8.21182622e-05	2.26854602e-01	2.26863169e-01	4.55813811e-06	6.67072586e+00	1.51242550e-18	1.96924246e+02	2.70577033e+02	6.67771953e-05	1.84467907e-01	1.84472504e-01	3.52774344e-06	5.16271043e+00	1.17412457e-18	1.96924245e+02	2.70587186e+02	5.16832284e-05	1.42767822e-01	1.42769789e-01	2.51047941e-06	3.67395032e+00	8.36085007e-19	1.96924245e+02	2.70595612e+02	3.67805328e-05	1.01599134e-01	1.01599560e-01	1.50255965e-06	2.19889640e+00	5.03522939e-19	1.96924244e+02	2.70602393e+02	2.20139744e-05	6.08086081e-02	6.08083639e-02	5.00232578e-07	7.32051314e-01	1.66319672e-19	1.96924244e+02	2.70607590e+02	7.32892076e-06	2.02444188e-02	2.02441746e-02	