# Ima C. Effdeer
# Colorful Fluid Dynamics, Inc.
# i.c.e@cfdtillithurts.com,  (911) 911-9111
# Provided structured 2D grid number 2, 9-zone, 198,545 grid points total
# 8 time steps per cycle (way too few!) 
# Code: CFL9D: upwind-biased, finite-volume, structured, RANS
# globally 2nd order in space, 2nd order in time
# Spalart-Allmaras turb model
# other info
variables="x, mm","y, mm","u, m/s","v, m/s","uu, m^2/s^2","vv, m^2/s^2","uv, m^2/s^2"
zone t="centerline"
  0.   0.    21.0798   1.1234   0.6687   0.7123   0.8123
  ...etc
  0.  10.0   15.1798   1.1234   0.6445   0.7123   0.8123
   ...etc
  0.  20.0   10.1112   1.6978   0.6556   0.7678   0.8123
zone t="y=0.1 mm"
 -10.  0.1    0.1234   1.1234   0.6123   0.7123   0.8123
  ...etc
   0.  0.1   10.1234   1.1234   0.6123   0.7123   0.8123
  ...etc
  10.  0.1    0.1234   1.1234   0.6123   0.7123   0.8123
zone t="y=1 mm"
 -10.  1.0    0.1234   1.1234   0.6123   0.7123   0.8123
  ...etc
   0.  1.0   10.1234   1.1234   0.6123   0.7123   0.8123
  ...etc
  10.  1.0    0.1234   1.1234   0.6123   0.7123   0.8123
zone t="y=2 mm"
 -10.  2.0    0.1234   1.1234   0.6123   0.7123   0.8123
  ...etc
   0.  2.0   10.1234   1.1234   0.6123   0.7123   0.8123
  ...etc
  10.  2.0    0.1234   1.1234   0.6123   0.7123   0.8123
zone t="y=3 mm"
 -10.  3.0    0.1234   1.1234   0.6123   0.7123   0.8123
  ...etc
   0.  3.0   10.1234   1.1234   0.6123   0.7123   0.8123
  ...etc
  10.  3.0    0.1234   1.1234   0.6123   0.7123   0.8123
zone t="y=4 mm"
 -10.  4.0    0.1234   1.1234   0.6123   0.7123   0.8123
  ...etc
   0.  4.0   10.1234   1.1234   0.6123   0.7123   0.8123
  ...etc
  10.  4.0    0.1234   1.1234   0.6123   0.7123   0.8123
zone t="y=5 mm"
 -10.  5.0    0.1234   1.1234   0.6123   0.7123   0.8123
  ...etc
   0.  5.0   10.1234   1.1234   0.6123   0.7123   0.8123
  ...etc
  10.  5.0    0.1234   1.1234   0.6123   0.7123   0.8123
zone t="y=6 mm"
 -10.  6.0    0.1234   1.1234   0.6123   0.7123   0.8123
  ...etc
   0.  6.0   10.1234   1.1234   0.6123   0.7123   0.8123
  ...etc
  10.  6.0    0.1234   1.1234   0.6123   0.7123   0.8123
zone t="y=7 mm"
 -10.  7.0    0.1234   1.1234   0.6123   0.7123   0.8123
  ...etc
   0.  7.0   10.1234   1.1234   0.6123   0.7123   0.8123
  ...etc
  10.  7.0    0.1234   1.1234   0.6123   0.7123   0.8123
zone t="y=8 mm"
 -10.  8.0    0.1234   1.1234   0.6123   0.7123   0.8123
  ...etc
   0.  8.0   10.1234   1.1234   0.6123   0.7123   0.8123
  ...etc
  10.  8.0    0.1234   1.1234   0.6123   0.7123   0.8123
