VARIABLES = "x","y","omega_nondim","k_nondim"
zone, t="CFL3D"
   29.24680      1.7055613E-03  3.3337974E-06  1.1692683E-03
   29.24680      5.3031743E-03  3.3339109E-06  1.1693859E-03
   29.24680      9.2341350E-03  3.3341721E-06  1.1696564E-03
   29.24680      1.3426181E-02  3.3346082E-06  1.1701081E-03
   29.24680      1.7821854E-02  3.3352387E-06  1.1707619E-03
   29.24680      2.2377014E-02  3.3360775E-06  1.1716329E-03
   29.24680      2.7058300E-02  3.3371348E-06  1.1727321E-03
   29.24680      3.1840920E-02  3.3384158E-06  1.1740669E-03
   29.24680      3.6706384E-02  3.3399247E-06  1.1756429E-03
   29.24680      4.1640956E-02  3.3416629E-06  1.1774634E-03
   29.24680      4.6634223E-02  3.3436304E-06  1.1795308E-03
   29.24680      5.1678274E-02  3.3458261E-06  1.1818461E-03
   29.24680      5.6766991E-02  3.3482474E-06  1.1844096E-03
   29.24680      6.1895575E-02  3.3508909E-06  1.1872207E-03
   29.24680      6.7060173E-02  3.3537524E-06  1.1902784E-03
   29.24680      7.2257631E-02  3.3568267E-06  1.1935805E-03
   29.24680      7.7485316E-02  3.3601082E-06  1.1971246E-03
   29.24680      8.2741007E-02  3.3635897E-06  1.2009076E-03
   29.24680      8.8022761E-02  3.3672643E-06  1.2049261E-03
   29.24680      9.3328893E-02  3.3711242E-06  1.2091754E-03
   29.24680      9.8657869E-02  3.3751612E-06  1.2136516E-03
   29.24680      0.1040083      3.3793663E-06  1.2183490E-03
   29.24680      0.1093790      3.3837305E-06  1.2232621E-03
   29.24680      0.1147689      3.3882441E-06  1.2283849E-03
   29.24680      0.1201768      3.3928975E-06  1.2337114E-03
   29.24680      0.1256017      3.3976805E-06  1.2392346E-03
   29.24680      0.1310429      3.4025832E-06  1.2449473E-03
   29.24680      0.1364994      3.4075949E-06  1.2508426E-03
   29.24680      0.1419705      3.4127058E-06  1.2569125E-03
   29.24680      0.1474553      3.4179056E-06  1.2631495E-03
   29.24680      0.1529532      3.4231837E-06  1.2695456E-03
   29.24680      0.1584636      3.4285304E-06  1.2760926E-03
   29.24680      0.1639857      3.4339355E-06  1.2827821E-03
   29.24680      0.1695190      3.4393893E-06  1.2896057E-03
   29.24680      0.1750630      3.4448822E-06  1.2965552E-03
   29.24680      0.1806170      3.4504053E-06  1.3036218E-03
   29.24680      0.1861805      3.4559489E-06  1.3107969E-03
   29.24680      0.1917531      3.4615048E-06  1.3180721E-03
   29.24680      0.1973343      3.4670643E-06  1.3254387E-03
   29.24680      0.2029237      3.4726195E-06  1.3328884E-03
   29.24680      0.2085206      3.4781624E-06  1.3404123E-03
   29.24680      0.2141249      3.4836858E-06  1.3480023E-03
   29.24680      0.2197361      3.4891825E-06  1.3556501E-03
   29.24680      0.2253537      3.4946461E-06  1.3633473E-03
   29.24680      0.2309774      3.5000703E-06  1.3710859E-03
   29.24680      0.2366069      3.5054486E-06  1.3788580E-03
   29.24680      0.2422418      3.5107762E-06  1.3866555E-03
   29.24680      0.2478818      3.5160474E-06  1.3944712E-03
   29.24680      0.2535266      3.5212574E-06  1.4022969E-03
   29.24680      0.2591758      3.5264015E-06  1.4101258E-03
   29.24680      0.2648292      3.5314761E-06  1.4179505E-03
   29.24680      0.2704865      3.5364767E-06  1.4257641E-03
   29.24680      0.2761474      3.5414000E-06  1.4335595E-03
   29.24680      0.2818117      3.5462426E-06  1.4413302E-03
   29.24680      0.2874790      3.5510020E-06  1.4490699E-03
   29.24680      0.2931491      3.5556750E-06  1.4567722E-03
   29.24680      0.2988218      3.5602593E-06  1.4644309E-03
   29.24680      0.3044969      3.5647529E-06  1.4720405E-03
   29.24680      0.3101741      3.5691537E-06  1.4795951E-03
   29.24680      0.3158532      3.5734602E-06  1.4870891E-03
   29.24680      0.3215339      3.5776711E-06  1.4945173E-03
   29.24680      0.3272162      3.5817848E-06  1.5018748E-03
   29.24680      0.3328998      3.5858002E-06  1.5091565E-03
   29.24680      0.3385844      3.5897169E-06  1.5163576E-03
   29.24680      0.3442699      3.5935336E-06  1.5234738E-03
   29.24680      0.3499562      3.5972505E-06  1.5305006E-03
   29.24680      0.3556429      3.6008666E-06  1.5374338E-03
   29.24680      0.3613300      3.6043821E-06  1.5442695E-03
   29.24680      0.3670173      3.6077968E-06  1.5510039E-03
   29.24680      0.3727046      3.6111105E-06  1.5576333E-03
   29.24680      0.3783918      3.6143238E-06  1.5641542E-03
   29.24680      0.3840786      3.6174365E-06  1.5705633E-03
   29.24680      0.3897650      3.6204492E-06  1.5768575E-03
   29.24680      0.3954508      3.6233623E-06  1.5830337E-03
   29.24680      0.4011359      3.6261763E-06  1.5890892E-03
   29.24680      0.4068200      3.6288916E-06  1.5950212E-03
   29.24680      0.4125031      3.6315096E-06  1.6008271E-03
   29.24680      0.4181851      3.6340302E-06  1.6065044E-03
   29.24680      0.4238657      3.6364549E-06  1.6120512E-03
   29.24680      0.4295449      3.6387842E-06  1.6174649E-03
   29.24680      0.4352225      3.6410190E-06  1.6227437E-03
   29.24680      0.4408985      3.6431602E-06  1.6278855E-03
   29.24680      0.4465726      3.6452093E-06  1.6328888E-03
   29.24680      0.4522448      3.6471665E-06  1.6377517E-03
   29.24680      0.4579150      3.6490335E-06  1.6424728E-03
   29.24680      0.4635831      3.6508113E-06  1.6470506E-03
   29.24680      0.4692489      3.6525007E-06  1.6514838E-03
   29.24680      0.4749123      3.6541030E-06  1.6557710E-03
   29.24680      0.4805732      3.6556194E-06  1.6599112E-03
   29.24680      0.4862316      3.6570509E-06  1.6639034E-03
   29.24680      0.4918872      3.6583988E-06  1.6677466E-03
   29.24680      0.4975401      3.6596643E-06  1.6714397E-03
   29.24680      0.5031901      3.6608487E-06  1.6749821E-03
   29.24680      0.5088372      3.6619531E-06  1.6783732E-03
   29.24680      0.5144812      3.6629785E-06  1.6816123E-03
   29.24680      0.5201220      3.6639260E-06  1.6846987E-03
   29.24680      0.5257596      3.6647973E-06  1.6876322E-03
   29.24680      0.5313938      3.6655933E-06  1.6904122E-03
   29.24680      0.5370247      3.6663150E-06  1.6930385E-03
   29.24680      0.5426521      3.6669639E-06  1.6955107E-03
   29.24680      0.5482758      3.6675413E-06  1.6978285E-03
   29.24680      0.5538960      3.6680481E-06  1.6999919E-03
   29.24680      0.5595123      3.6684851E-06  1.7020009E-03
   29.24680      0.5651249      3.6688543E-06  1.7038552E-03
   29.24680      0.5707335      3.6691561E-06  1.7055550E-03
   29.24680      0.5763383      3.6693921E-06  1.7071004E-03
   29.24680      0.5819390      3.6695631E-06  1.7084915E-03
   29.24680      0.5875355      3.6696706E-06  1.7097282E-03
   29.24680      0.5931279      3.6697152E-06  1.7108109E-03
   29.24680      0.5987161      3.6696983E-06  1.7117399E-03
   29.24680      0.6042998      3.6696210E-06  1.7125155E-03
   29.24680      0.6098793      3.6694842E-06  1.7131380E-03
   29.24680      0.6154543      3.6692891E-06  1.7136077E-03
   29.24680      0.6210248      3.6690367E-06  1.7139249E-03
   29.24680      0.6265907      3.6687277E-06  1.7140904E-03
   29.24680      0.6321519      3.6683637E-06  1.7141043E-03
   29.24680      0.6377085      3.6679451E-06  1.7139673E-03
   29.24680      0.6432603      3.6674733E-06  1.7136799E-03
   29.24680      0.6488072      3.6669489E-06  1.7132426E-03
   29.24680      0.6543494      3.6663732E-06  1.7126561E-03
   29.24680      0.6598865      3.6657470E-06  1.7119208E-03
   29.24680      0.6654187      3.6650711E-06  1.7110377E-03
   29.24680      0.6709458      3.6643464E-06  1.7100072E-03
   29.24680      0.6764678      3.6635738E-06  1.7088300E-03
   29.24680      0.6819847      3.6627544E-06  1.7075068E-03
   29.24680      0.6874963      3.6618890E-06  1.7060384E-03
   29.24680      0.6930026      3.6609779E-06  1.7044257E-03
   29.24680      0.6984659      3.6600291E-06  1.7026812E-03
   29.24680      0.7038490      3.6590511E-06  1.7008226E-03
   29.24680      0.7091529      3.6580464E-06  1.6988560E-03
   29.24680      0.7143788      3.6570168E-06  1.6967873E-03
   29.24680      0.7195278      3.6559645E-06  1.6946222E-03
   29.24680      0.7246009      3.6548918E-06  1.6923661E-03
   29.24680      0.7295992      3.6537999E-06  1.6900243E-03
   29.24680      0.7345237      3.6526912E-06  1.6876019E-03
   29.24680      0.7393755      3.6515669E-06  1.6851038E-03
   29.24680      0.7441556      3.6504289E-06  1.6825347E-03
   29.24680      0.7488649      3.6492781E-06  1.6798992E-03
   29.24680      0.7535046      3.6481165E-06  1.6772015E-03
   29.24680      0.7580756      3.6469451E-06  1.6744459E-03
   29.24680      0.7625788      3.6457654E-06  1.6716365E-03
   29.24680      0.7670152      3.6445783E-06  1.6687771E-03
   29.24680      0.7713857      3.6433853E-06  1.6658714E-03
   29.24680      0.7756913      3.6421868E-06  1.6629229E-03
   29.24680      0.7799329      3.6409842E-06  1.6599353E-03
   29.24680      0.7841113      3.6397787E-06  1.6569116E-03
   29.24680      0.7882276      3.6385709E-06  1.6538552E-03
   29.24680      0.7922825      3.6373613E-06  1.6507690E-03
   29.24680      0.7962769      3.6361514E-06  1.6476561E-03
   29.24680      0.8002118      3.6349415E-06  1.6445189E-03
   29.24680      0.8040879      3.6337324E-06  1.6413603E-03
   29.24680      0.8079061      3.6325246E-06  1.6381830E-03
   29.24680      0.8116671      3.6313190E-06  1.6349893E-03
   29.24680      0.8153720      3.6301158E-06  1.6317815E-03
   29.24680      0.8190213      3.6289161E-06  1.6285620E-03
   29.24680      0.8226160      3.6277202E-06  1.6253327E-03
   29.24680      0.8261567      3.6265283E-06  1.6220959E-03
   29.24680      0.8296444      3.6253412E-06  1.6188535E-03
   29.24680      0.8330796      3.6241590E-06  1.6156073E-03
   29.24680      0.8364633      3.6229826E-06  1.6123591E-03
   29.24680      0.8397960      3.6218116E-06  1.6091107E-03
   29.24680      0.8430786      3.6206475E-06  1.6058637E-03
   29.24680      0.8463117      3.6194895E-06  1.6026194E-03
   29.24680      0.8494962      3.6183387E-06  1.5993797E-03
   29.24680      0.8526326      3.6171948E-06  1.5961458E-03
   29.24680      0.8557217      3.6160584E-06  1.5929190E-03
   29.24680      0.8587642      3.6149299E-06  1.5897006E-03
   29.24680      0.8617607      3.6138090E-06  1.5864919E-03
   29.24680      0.8647118      3.6126962E-06  1.5832939E-03
   29.24680      0.8676184      3.6115921E-06  1.5801077E-03
   29.24680      0.8704809      3.6104966E-06  1.5769346E-03
   29.24680      0.8733000      3.6094093E-06  1.5737753E-03
   29.24680      0.8760764      3.6083311E-06  1.5706308E-03
   29.24680      0.8788106      3.6072620E-06  1.5675022E-03
   29.24680      0.8815034      3.6062020E-06  1.5643898E-03
   29.24680      0.8841552      3.6051511E-06  1.5612950E-03
   29.24680      0.8867667      3.6041092E-06  1.5582182E-03
   29.24680      0.8893385      3.6030774E-06  1.5551599E-03
   29.24680      0.8918711      3.6020547E-06  1.5521214E-03
   29.24680      0.8943651      3.6010420E-06  1.5491027E-03
   29.24680      0.8968210      3.6000386E-06  1.5461047E-03
   29.24680      0.8992395      3.5990452E-06  1.5431278E-03
   29.24680      0.9016210      3.5980613E-06  1.5401726E-03
   29.24680      0.9039662      3.5970872E-06  1.5372395E-03
   29.24680      0.9062755      3.5961232E-06  1.5343290E-03
   29.24680      0.9085494      3.5951689E-06  1.5314415E-03
   29.24680      0.9107885      3.5942248E-06  1.5285773E-03
   29.24680      0.9129932      3.5932903E-06  1.5257369E-03
   29.24680      0.9151642      3.5923658E-06  1.5229203E-03
   29.24680      0.9173018      3.5914513E-06  1.5201282E-03
   29.24680      0.9194065      3.5905468E-06  1.5173608E-03
   29.24680      0.9214789      3.5896524E-06  1.5146182E-03
   29.24680      0.9235194      3.5887679E-06  1.5119007E-03
   29.24680      0.9255284      3.5878929E-06  1.5092083E-03
   29.24680      0.9275065      3.5870280E-06  1.5065416E-03
   29.24680      0.9294540      3.5861731E-06  1.5039004E-03
   29.24680      0.9313715      3.5853277E-06  1.5012850E-03
   29.24680      0.9332594      3.5844923E-06  1.4986955E-03
   29.24680      0.9351180      3.5836670E-06  1.4961320E-03
   29.24680      0.9369479      3.5828511E-06  1.4935946E-03
   29.24680      0.9387494      3.5820449E-06  1.4910832E-03
   29.24680      0.9405230      3.5812484E-06  1.4885981E-03
   29.24680      0.9422690      3.5804615E-06  1.4861391E-03
   29.24680      0.9439880      3.5796838E-06  1.4837065E-03
   29.24680      0.9456803      3.5789160E-06  1.4813002E-03
   29.24680      0.9473462      3.5781577E-06  1.4789201E-03
   29.24680      0.9489862      3.5774085E-06  1.4765663E-03
   29.24680      0.9506006      3.5766689E-06  1.4742387E-03
   29.24680      0.9521898      3.5759381E-06  1.4719372E-03
   29.24680      0.9537542      3.5752169E-06  1.4696619E-03
   29.24680      0.9552943      3.5745049E-06  1.4674127E-03
   29.24680      0.9568101      3.5738017E-06  1.4651895E-03
   29.24680      0.9583023      3.5731077E-06  1.4629923E-03
   29.24680      0.9597711      3.5724227E-06  1.4608209E-03
   29.24680      0.9612169      3.5717462E-06  1.4586751E-03
   29.24680      0.9626399      3.5710791E-06  1.4565552E-03
   29.24680      0.9640406      3.5704202E-06  1.4544607E-03
   29.24680      0.9654194      3.5697703E-06  1.4523917E-03
   29.24680      0.9667763      3.5691287E-06  1.4503479E-03
   29.24680      0.9681119      3.5684957E-06  1.4483293E-03
   29.24680      0.9694265      3.5678713E-06  1.4463358E-03
   29.24680      0.9707202      3.5672554E-06  1.4443671E-03
   29.24680      0.9719936      3.5666476E-06  1.4424233E-03
   29.24680      0.9732468      3.5660478E-06  1.4405039E-03
   29.24680      0.9744802      3.5654564E-06  1.4386091E-03
   29.24680      0.9756939      3.5648732E-06  1.4367384E-03
   29.24680      0.9768885      3.5642977E-06  1.4348920E-03
   29.24680      0.9780640      3.5637302E-06  1.4330694E-03
   29.24680      0.9792208      3.5631706E-06  1.4312707E-03
   29.24680      0.9803593      3.5626185E-06  1.4294955E-03
   29.24680      0.9814795      3.5620742E-06  1.4277438E-03
   29.24680      0.9825819      3.5615378E-06  1.4260153E-03
   29.24680      0.9836667      3.5610087E-06  1.4243098E-03
   29.24680      0.9847342      3.5604871E-06  1.4226271E-03
   29.24680      0.9857845      3.5599728E-06  1.4209673E-03
   29.24680      0.9868181      3.5594658E-06  1.4193298E-03
   29.24680      0.9878350      3.5589662E-06  1.4177146E-03
   29.24680      0.9888356      3.5584735E-06  1.4161216E-03
   29.24680      0.9898201      3.5579881E-06  1.4145505E-03
   29.24680      0.9907887      3.5575094E-06  1.4130010E-03
   29.24680      0.9917417      3.5570379E-06  1.4114729E-03
   29.24680      0.9926793      3.5565731E-06  1.4099663E-03
   29.24680      0.9936018      3.5561150E-06  1.4084807E-03
   29.24680      0.9945093      3.5556636E-06  1.4070161E-03
   29.24680      0.9954021      3.5552189E-06  1.4055721E-03
   29.24680      0.9962804      3.5547807E-06  1.4041485E-03
   29.24680      0.9971445      3.5543490E-06  1.4027453E-03
   29.24680      0.9979945      3.5539238E-06  1.4013622E-03
   29.24680      0.9988306      3.5535045E-06  1.3999990E-03
   29.24680      0.9996530      3.5530918E-06  1.3986554E-03
   29.24680       1.000462      3.5526850E-06  1.3973312E-03
   29.24680       1.001258      3.5522846E-06  1.3960265E-03
   29.24680       1.002041      3.5518901E-06  1.3947407E-03
   29.24680       1.002810      3.5515015E-06  1.3934737E-03
   29.24680       1.003568      3.5511189E-06  1.3922255E-03
   29.24680       1.004313      3.5507419E-06  1.3909957E-03
   29.24680       1.005051      3.5503676E-06  1.3897733E-03
   29.24680       1.005801      3.5499875E-06  1.3885322E-03
   29.24680       1.006570      3.5495966E-06  1.3872555E-03
   29.24680       1.007360      3.5491948E-06  1.3859423E-03
   29.24680       1.008171      3.5487815E-06  1.3845909E-03
   29.24680       1.009004      3.5483563E-06  1.3831999E-03
   29.24680       1.009861      3.5479186E-06  1.3817681E-03
   29.24680       1.010741      3.5474682E-06  1.3802937E-03
   29.24680       1.011645      3.5470046E-06  1.3787753E-03
   29.24680       1.012575      3.5465273E-06  1.3772110E-03
   29.24680       1.013531      3.5460355E-06  1.3755993E-03
   29.24680       1.014515      3.5455291E-06  1.3739382E-03
   29.24680       1.015526      3.5450071E-06  1.3722258E-03
   29.24680       1.016566      3.5444696E-06  1.3704605E-03
   29.24680       1.017636      3.5439152E-06  1.3686400E-03
   29.24680       1.018738      3.5433438E-06  1.3667624E-03
   29.24680       1.019871      3.5427547E-06  1.3648253E-03
   29.24680       1.021037      3.5421469E-06  1.3628264E-03
   29.24680       1.022238      3.5415201E-06  1.3607634E-03
   29.24680       1.023475      3.5408734E-06  1.3586340E-03
   29.24680       1.024748      3.5402063E-06  1.3564352E-03
   29.24680       1.026059      3.5395174E-06  1.3541647E-03
   29.24680       1.027409      3.5388066E-06  1.3518195E-03
   29.24680       1.028800      3.5380726E-06  1.3493968E-03
   29.24680       1.030233      3.5373146E-06  1.3468936E-03
   29.24680       1.031709      3.5365315E-06  1.3443064E-03
   29.24680       1.033230      3.5357227E-06  1.3416322E-03
   29.24680       1.034798      3.5348871E-06  1.3388676E-03
   29.24680       1.036414      3.5340236E-06  1.3360085E-03
   29.24680       1.038079      3.5331309E-06  1.3330518E-03
   29.24680       1.039796      3.5322080E-06  1.3299934E-03
   29.24680       1.041566      3.5312537E-06  1.3268290E-03
   29.24680       1.043391      3.5302669E-06  1.3235542E-03
   29.24680       1.045272      3.5292464E-06  1.3201651E-03
   29.24680       1.047213      3.5281905E-06  1.3166566E-03
   29.24680       1.049214      3.5270978E-06  1.3130242E-03
   29.24680       1.051278      3.5259668E-06  1.3092624E-03
   29.24680       1.053408      3.5247965E-06  1.3053662E-03
   29.24680       1.055604      3.5235846E-06  1.3013298E-03
   29.24680       1.057870      3.5223297E-06  1.2971478E-03
   29.24680       1.060208      3.5210301E-06  1.2928139E-03
   29.24680       1.062620      3.5196838E-06  1.2883218E-03
   29.24680       1.065110      3.5182888E-06  1.2836650E-03
   29.24680       1.067678      3.5168432E-06  1.2788365E-03
   29.24680       1.070329      3.5153448E-06  1.2738290E-03
   29.24680       1.073066      3.5137914E-06  1.2686353E-03
   29.24680       1.075890      3.5121807E-06  1.2632471E-03
   29.24680       1.078805      3.5105099E-06  1.2576563E-03
   29.24680       1.081814      3.5087769E-06  1.2518542E-03
   29.24680       1.084920      3.5069788E-06  1.2458320E-03
   29.24680       1.088127      3.5051125E-06  1.2395798E-03
   29.24680       1.091438      3.5031751E-06  1.2330879E-03
   29.24680       1.094857      3.5011635E-06  1.2263460E-03
   29.24680       1.098386      3.4990742E-06  1.2193432E-03
   29.24680       1.102031      3.4969037E-06  1.2120679E-03
   29.24680       1.105795      3.4946484E-06  1.2045086E-03
   29.24680       1.109682      3.4923041E-06  1.1966525E-03
   29.24680       1.113696      3.4898667E-06  1.1884866E-03
   29.24680       1.117841      3.4873315E-06  1.1799972E-03
   29.24680       1.122123      3.4846944E-06  1.1711700E-03
   29.24680       1.126545      3.4819500E-06  1.1619900E-03
   29.24680       1.131112      3.4790928E-06  1.1524415E-03
   29.24680       1.135830      3.4761174E-06  1.1425079E-03
   29.24680       1.140703      3.4730174E-06  1.1321721E-03
   29.24680       1.145737      3.4697866E-06  1.1214158E-03
   29.24680       1.150938      3.4664181E-06  1.1102203E-03
   29.24680       1.156310      3.4629043E-06  1.0985658E-03
   29.24680       1.161860      3.4592372E-06  1.0864313E-03
   29.24680       1.167593      3.4554078E-06  1.0737951E-03
   29.24680       1.173517      3.4514073E-06  1.0606346E-03
   29.24680       1.179637      3.4472250E-06  1.0469261E-03
   29.24680       1.185961      3.4428504E-06  1.0326444E-03
   29.24680       1.192494      3.4382711E-06  1.0177640E-03
   29.24680       1.199245      3.4334744E-06  1.0022572E-03
   29.24680       1.206220      3.4284449E-06  9.8609563E-04
   29.24680       1.213427      3.4231673E-06  9.6924981E-04
   29.24680       1.220875      3.4176237E-06  9.5168874E-04
   29.24680       1.228570      3.4117945E-06  9.3338010E-04
   29.24680       1.236523      3.4056575E-06  9.1429037E-04
   29.24680       1.244741      3.3991880E-06  8.9438469E-04
   29.24680       1.253233      3.3923579E-06  8.7362673E-04
   29.24680       1.262009      3.3851352E-06  8.5197890E-04
   29.24680       1.271078      3.3774829E-06  8.2940230E-04
   29.24680       1.280450      3.3693591E-06  8.0585683E-04
   29.24680       1.290137      3.3607143E-06  7.8130141E-04
   29.24680       1.300147      3.3514909E-06  7.5569365E-04
   29.24680       1.310493      3.3416197E-06  7.2899065E-04
   29.24680       1.321185      3.3310191E-06  7.0114899E-04
   29.24680       1.332235      3.3195897E-06  6.7212549E-04
   29.24680       1.343657      3.3072097E-06  6.4187695E-04
   29.24680       1.355461      3.2937285E-06  6.1036192E-04
   29.24680       1.367661      3.2789565E-06  5.7754124E-04
   29.24680       1.380271      3.2626513E-06  5.4337957E-04
   29.24680       1.393304      3.2444987E-06  5.0784810E-04
   29.24680       1.406775      3.2240810E-06  4.7092699E-04
   29.24680       1.420699      3.2008331E-06  4.3261051E-04
   29.24680       1.435091      3.1739701E-06  3.9291359E-04
   29.24680       1.449967      3.1423692E-06  3.5188242E-04
   29.24680       1.465343      3.1043714E-06  3.0961065E-04
   29.24680       1.481236      3.0574283E-06  2.6626640E-04
   29.24680       1.497664      2.9974444E-06  2.2213763E-04
   29.24680       1.514645      2.9174867E-06  1.7771068E-04
   29.24680       1.532198      2.8051340E-06  1.3381304E-04
   29.24680       1.550342      2.6369451E-06  9.1870577E-05
   29.24680       1.569097      2.3682073E-06  5.4317432E-05
   29.24680       1.588483      1.9269439E-06  2.4885849E-05
   29.24680       1.608523      1.2850239E-06  7.3005954E-06
   29.24680       1.629239      6.8064458E-07  1.0086884E-06
   29.24680       1.650653      4.5688535E-07  5.5344472E-08
   29.24680       1.672789      4.3892325E-07  5.1559095E-09
   29.24680       1.695672      4.3838162E-07  3.7108112E-09
   29.24680       1.719327      4.3836707E-07  3.6735672E-09
   29.24680       1.743779      4.3836619E-07  3.6726544E-09
   29.24680       1.769057      4.3836562E-07  3.6726284E-09
   29.24680       1.795188      4.3836505E-07  3.6726227E-09
   29.24680       1.822201      4.3836445E-07  3.6726173E-09
   29.24680       1.850127      4.3836386E-07  3.6726120E-09
   29.24680       1.878995      4.3836326E-07  3.6726062E-09
   29.24680       1.908838      4.3836263E-07  3.6726004E-09
   29.24680       1.939689      4.3836195E-07  3.6725947E-09
   29.24680       1.971583      4.3836130E-07  3.6725887E-09
   29.24680       2.004555      4.3836062E-07  3.6725827E-09
   29.24680       2.038640      4.3835993E-07  3.6725760E-09
   29.24680       2.073878      4.3835922E-07  3.6725696E-09
   29.24680       2.110307      4.3835848E-07  3.6725629E-09
   29.24680       2.147969      4.3835774E-07  3.6725560E-09
   29.24680       2.186903      4.3835695E-07  3.6725489E-09
   29.24680       2.227154      4.3835615E-07  3.6725418E-09
   29.24680       2.268768      4.3835533E-07  3.6725343E-09
   29.24680       2.311789      4.3835448E-07  3.6725265E-09
   29.24680       2.356266      4.3835360E-07  3.6725187E-09
   29.24680       2.402248      4.3835274E-07  3.6725105E-09
   29.24680       2.449786      4.3835178E-07  3.6725023E-09
   29.24680       2.498934      4.3835084E-07  3.6724934E-09
   29.24680       2.549747      4.3834987E-07  3.6724845E-09
   29.24680       2.602279      4.3834888E-07  3.6724752E-09
   29.24680       2.656592      4.3834780E-07  3.6724659E-09
   29.24680       2.712744      4.3834675E-07  3.6724561E-09
   29.24680       2.770798      4.3834564E-07  3.6724461E-09
   29.24680       2.830820      4.3834450E-07  3.6724357E-09
   29.24680       2.892877      4.3834331E-07  3.6724250E-09
   29.24680       2.957037      4.3834211E-07  3.6724139E-09
   29.24680       3.023372      4.3834086E-07  3.6724026E-09
   29.24680       3.091957      4.3833958E-07  3.6723908E-09
   29.24680       3.162868      4.3833825E-07  3.6723788E-09
   29.24680       3.236185      4.3833688E-07  3.6723664E-09
   29.24680       3.311989      4.3833546E-07  3.6723535E-09
   29.24680       3.390366      4.3833401E-07  3.6723402E-09
   29.24680       3.471403      4.3833251E-07  3.6723264E-09
   29.24680       3.555191      4.3833094E-07  3.6723122E-09
   29.24680       3.641825      4.3832932E-07  3.6722976E-09
   29.24680       3.731401      4.3832767E-07  3.6722825E-09
   29.24680       3.824020      4.3832597E-07  3.6722669E-09
   29.24680       3.919786      4.3832421E-07  3.6722509E-09
   29.24680       4.018806      4.3832239E-07  3.6722345E-09
   29.24680       4.121193      4.3832051E-07  3.6722174E-09
   29.24680       4.227061      4.3831858E-07  3.6721999E-09
   29.24680       4.336530      4.3831659E-07  3.6721817E-09
   29.24680       4.449722      4.3831454E-07  3.6721630E-09
   29.24680       4.566767      4.3831241E-07  3.6721435E-09
   29.24680       4.687794      4.3831022E-07  3.6721235E-09
   29.24680       4.812942      4.3830795E-07  3.6721031E-09
   29.24680       4.942351      4.3830562E-07  3.6720817E-09
   29.24680       5.076169      4.3830323E-07  3.6720600E-09
   29.24680       5.214546      4.3830076E-07  3.6720373E-09
   29.24680       5.357639      4.3829823E-07  3.6720142E-09
   29.24680       5.505611      4.3829559E-07  3.6719903E-09
   29.24680       5.658628      4.3829289E-07  3.6719654E-09
   29.24680       5.816866      4.3829007E-07  3.6719401E-09
   29.24680       5.980503      4.3828720E-07  3.6719139E-09
   29.24680       6.149726      4.3828425E-07  3.6718868E-09
   29.24680       6.324728      4.3828118E-07  3.6718593E-09
   29.24680       6.505706      4.3827805E-07  3.6718304E-09
   29.24680       6.692869      4.3827481E-07  3.6718011E-09
   29.24680       6.886430      4.3827146E-07  3.6717707E-09
   29.24680       7.086610      4.3826805E-07  3.6717394E-09
   29.24680       7.293638      4.3826452E-07  3.6717074E-09
   29.24680       7.507751      4.3826088E-07  3.6716743E-09
   29.24680       7.729193      4.3825713E-07  3.6716403E-09
   29.24680       7.958220      4.3825332E-07  3.6716052E-09
   29.24680       8.195095      4.3824934E-07  3.6715693E-09
   29.24680       8.440090      4.3824531E-07  3.6715324E-09
   29.24680       8.693486      4.3824110E-07  3.6714944E-09
   29.24680       8.955578      4.3823684E-07  3.6714554E-09
   29.24680       9.226665      4.3823241E-07  3.6714152E-09
   29.24680       9.507064      4.3822791E-07  3.6713741E-09
   29.24680       9.797097      4.3822325E-07  3.6713317E-09
   29.24680       10.09710      4.3821851E-07  3.6712884E-09
   29.24680       10.40743      4.3821359E-07  3.6712438E-09
   29.24680       10.72843      4.3820859E-07  3.6711980E-09
   29.24680       11.06049      4.3820344E-07  3.6711514E-09
   29.24680       11.40399      4.3819816E-07  3.6711034E-09
   29.24680       11.75934      4.3819276E-07  3.6710541E-09
   29.24680       12.12695      4.3818721E-07  3.6710035E-09
   29.24680       12.50724      4.3818156E-07  3.6709520E-09
   29.24680       12.90068      4.3817573E-07  3.6708991E-09
   29.24680       13.30772      4.3816982E-07  3.6708450E-09
   29.24680       13.72884      4.3816374E-07  3.6707899E-09
   29.24680       14.16455      4.3815754E-07  3.6707331E-09
   29.24680       14.61535      4.3815118E-07  3.6706753E-09
   29.24680       15.08179      4.3814470E-07  3.6706163E-09
   29.24680       15.56442      4.3813807E-07  3.6705561E-09
   29.24680       16.06382      4.3813131E-07  3.6704946E-09
   29.24680       16.58059      4.3812440E-07  3.6704317E-09
   29.24680       17.11535      4.3811741E-07  3.6703678E-09
   29.24680       17.66874      4.3811022E-07  3.6703027E-09
   29.24680       18.24145      4.3810294E-07  3.6702361E-09
   29.24680       18.83416      4.3809553E-07  3.6701686E-09
   29.24680       19.44761      4.3808797E-07  3.6701000E-09
   29.24680       20.08254      4.3808029E-07  3.6700301E-09
   29.24680       20.73974      4.3807250E-07  3.6699590E-09
   29.24680       21.42002      4.3806460E-07  3.6698873E-09
   29.24680       22.12424      4.3805659E-07  3.6698142E-09
   29.24680       22.85327      4.3804846E-07  3.6697401E-09
   29.24680       23.60804      4.3804022E-07  3.6696650E-09
   29.24680       24.38951      4.3803186E-07  3.6695891E-09
   29.24680       25.19867      4.3802345E-07  3.6695125E-09
   29.24680       26.03657      4.3801492E-07  3.6694350E-09
   29.24680       26.90430      4.3800634E-07  3.6693566E-09
   29.24680       27.80299      4.3799764E-07  3.6692775E-09
   29.24680       28.73385      4.3798889E-07  3.6691981E-09
   29.24680       29.69811      4.3798008E-07  3.6691179E-09
   29.24680       30.69708      4.3797127E-07  3.6690373E-09
   29.24680       31.73212      4.3796234E-07  3.6689562E-09
   29.24680       32.80468      4.3795342E-07  3.6688750E-09
   29.24680       33.91625      4.3794446E-07  3.6687933E-09
   29.24680       35.06842      4.3793551E-07  3.6687118E-09
   29.24680       36.26285      4.3792653E-07  3.6686301E-09
   29.24680       37.50131      4.3791755E-07  3.6685486E-09
   29.24680       38.78564      4.3790862E-07  3.6684671E-09
   29.24680       40.11781      4.3789970E-07  3.6683858E-09
   29.24680       41.49987      4.3789083E-07  3.6683052E-09
   29.24680       42.93404      4.3788202E-07  3.6682248E-09
   29.24680       44.42263      4.3787327E-07  3.6681453E-09