# Planar shear case, sst, x=2.71623
VARIABLES = "X"
"Y"
"U Velocity"
zone, t="CFL3D"
 2.716229677E+00 0.000000000E+00 5.006179810E-01
 2.716229677E+00 3.411792452E-03 5.006179810E-01
 2.716229677E+00 6.878545973E-03 5.006180406E-01
 2.716229677E+00 1.038206182E-02 5.006181598E-01
 2.716229677E+00 1.390974317E-02 5.006182790E-01
 2.716229677E+00 1.745269448E-02 5.006184578E-01
 2.716229677E+00 2.100474574E-02 5.006186366E-01
 2.716229677E+00 2.456161939E-02 5.006188750E-01
 2.716229677E+00 2.812026069E-02 5.006191730E-01
 2.716229677E+00 3.167856485E-02 5.006194711E-01
 2.716229677E+00 3.523498029E-02 5.006198287E-01
 2.716229677E+00 3.878846765E-02 5.006202459E-01
 2.716229677E+00 4.233822227E-02 5.006207228E-01
 2.716229677E+00 4.588367790E-02 5.006211996E-01
 2.716229677E+00 4.942440987E-02 5.006216764E-01
 2.716229677E+00 5.296008661E-02 5.006222725E-01
 2.716229677E+00 5.649045855E-02 5.006228685E-01
 2.716229916E+00 6.001533195E-02 5.006235242E-01
 2.716229916E+00 6.353453547E-02 5.006242394E-01
 2.716229916E+00 6.704795361E-02 5.006249547E-01
 2.716229916E+00 7.055545598E-02 5.006257296E-01
 2.716229916E+00 7.405696809E-02 5.006265640E-01
 2.716229916E+00 7.755240798E-02 5.006274581E-01
 2.716229916E+00 8.104169369E-02 5.006283522E-01
 2.716229916E+00 8.452477306E-02 5.006293058E-01
 2.716229916E+00 8.800158650E-02 5.006303191E-01
 2.716229916E+00 9.147208184E-02 5.006313920E-01
 2.716229916E+00 9.493622929E-02 5.006325245E-01
 2.716229916E+00 9.839397669E-02 5.006337166E-01
 2.716229916E+00 1.018452868E-01 5.006349087E-01
 2.716229916E+00 1.052901372E-01 5.006362200E-01
 2.716229916E+00 1.087284833E-01 5.006375313E-01
 2.716229916E+00 1.121603027E-01 5.006389022E-01
 2.716229916E+00 1.155855730E-01 5.006403327E-01
 2.716229916E+00 1.190042794E-01 5.006418228E-01
 2.716229916E+00 1.224163845E-01 5.006434321E-01
 2.716229916E+00 1.258218735E-01 5.006450415E-01
 2.716229916E+00 1.292207539E-01 5.006467700E-01
 2.716229916E+00 1.326129735E-01 5.006485581E-01
 2.716229916E+00 1.359985322E-01 5.006504059E-01
 2.716229916E+00 1.393774301E-01 5.006523132E-01
 2.716229916E+00 1.427496225E-01 5.006542802E-01
 2.716229916E+00 1.461151540E-01 5.006563663E-01
 2.716229916E+00 1.494739652E-01 5.006585121E-01
 2.716229916E+00 1.528260559E-01 5.006607175E-01
 2.716230154E+00 1.561714411E-01 5.006630421E-01
 2.716230154E+00 1.595101058E-01 5.006654263E-01
 2.716230154E+00 1.628420204E-01 5.006678700E-01
 2.716230154E+00 1.661672145E-01 5.006704330E-01
 2.716230154E+00 1.694856733E-01 5.006731153E-01
 2.716230154E+00 1.727973819E-01 5.006758571E-01
 2.716230154E+00 1.761023551E-01 5.006787181E-01
 2.716230154E+00 1.794005781E-01 5.006816983E-01
 2.716230154E+00 1.826920360E-01 5.006847382E-01
 2.716230154E+00 1.859767735E-01 5.006879568E-01
 2.716230154E+00 1.892547458E-01 5.006912351E-01
 2.716230154E+00 1.925259829E-01 5.006946325E-01
 2.716230154E+00 1.957904696E-01 5.006981492E-01
 2.716230154E+00 1.990482062E-01 5.007018447E-01
 2.716230154E+00 2.022991925E-01 5.007055998E-01
 2.716230154E+00 2.055434436E-01 5.007095337E-01
 2.716230154E+00 2.087809592E-01 5.007135868E-01
 2.716230154E+00 2.120117396E-01 5.007177591E-01
 2.716230154E+00 2.152357846E-01 5.007220507E-01
 2.716230154E+00 2.184530944E-01 5.007265210E-01
 2.716230154E+00 2.216636837E-01 5.007312298E-01
 2.716230154E+00 2.248675525E-01 5.007360578E-01
 2.716230154E+00 2.280647010E-01 5.007410049E-01
 2.716230154E+00 2.312551439E-01 5.007461905E-01
 2.716230154E+00 2.344388664E-01 5.007514954E-01
 2.716230154E+00 2.376159132E-01 5.007569790E-01
 2.716230154E+00 2.407862544E-01 5.007627010E-01
 2.716230154E+00 2.439499050E-01 5.007685423E-01
 2.716230154E+00 2.471068799E-01 5.007746816E-01
 2.716230154E+00 2.502571642E-01 5.007809997E-01
 2.716230154E+00 2.534007728E-01 5.007874966E-01
 2.716230392E+00 2.565377653E-01 5.007943511E-01
 2.716230392E+00 2.596680522E-01 5.008015037E-01
 2.716230392E+00 2.627916932E-01 5.008090734E-01
 2.716230392E+00 2.659087181E-01 5.008170605E-01
 2.716230392E+00 2.690190971E-01 5.008249879E-01
 2.716230392E+00 2.721228600E-01 5.008304119E-01
 2.716230392E+00 2.752199769E-01 5.008266568E-01
 2.716230392E+00 2.783105373E-01 5.007994771E-01
 2.716230392E+00 2.813944221E-01 5.007234812E-01
 2.716230392E+00 2.844717503E-01 5.005627871E-01
 2.716230392E+00 2.875424922E-01 5.002765059E-01
 2.716230392E+00 2.906066477E-01 4.998283088E-01
 2.716230392E+00 2.936642468E-01 4.991949201E-01
 2.716230392E+00 2.967152894E-01 4.983693957E-01
 2.716230392E+00 2.997597754E-01 4.973587692E-01
 2.716230392E+00 3.027977049E-01 4.961786568E-01
 2.716230392E+00 3.058290780E-01 4.948479533E-01
 2.716230392E+00 3.088539839E-01 4.933851659E-01
 2.716230392E+00 3.118723333E-01 4.918070138E-01
 2.716230392E+00 3.148841858E-01 4.901274145E-01
 2.716230392E+00 3.178895414E-01 4.883578420E-01
 2.716230392E+00 3.208884299E-01 4.865075052E-01
 2.716230392E+00 3.238808215E-01 4.845838249E-01
 2.716230392E+00 3.268667459E-01 4.825928807E-01
 2.716230392E+00 3.298462331E-01 4.805395901E-01
 2.716230392E+00 3.328192532E-01 4.784280956E-01
 2.716230392E+00 3.357858360E-01 4.762618840E-01
 2.716230392E+00 3.387459815E-01 4.740440845E-01
 2.716230392E+00 3.416997194E-01 4.717773795E-01
 2.716230392E+00 3.446470797E-01 4.694643617E-01
 2.716230392E+00 3.475880027E-01 4.671072960E-01
 2.716230392E+00 3.505225778E-01 4.647083879E-01
 2.716230392E+00 3.534507453E-01 4.622699320E-01
 2.716230392E+00 3.563725650E-01 4.597938657E-01
 2.716230392E+00 3.592880070E-01 4.572823048E-01
 2.716230631E+00 3.621971309E-01 4.547372162E-01
 2.716230631E+00 3.650998771E-01 4.521605670E-01
 2.716230631E+00 3.679963648E-01 4.495543540E-01
 2.716230631E+00 3.708864748E-01 4.469204247E-01
 2.716230631E+00 3.737703264E-01 4.442606866E-01
 2.716230631E+00 3.766478896E-01 4.415769577E-01
 2.716230631E+00 3.795191646E-01 4.388711154E-01
 2.716230631E+00 3.823841512E-01 4.361449182E-01
 2.716230631E+00 3.852428794E-01 4.334000945E-01
 2.716230631E+00 3.880954087E-01 4.306383729E-01
 2.716230631E+00 3.909416497E-01 4.278613031E-01
 2.716230631E+00 3.937816918E-01 4.250705838E-01
 2.716230631E+00 3.966155052E-01 4.222677052E-01
 2.716230631E+00 3.994431198E-01 4.194542170E-01
 2.716230631E+00 4.022645354E-01 4.166315496E-01
 2.716230631E+00 4.050797820E-01 4.138011038E-01
 2.716230631E+00 4.078888297E-01 4.109753072E-01
 2.716230631E+00 4.106473625E-01 4.081779718E-01
 2.716230631E+00 4.133561850E-01 4.054214060E-01
 2.716230631E+00 4.160162508E-01 4.027062058E-01
 2.716230631E+00 4.186284244E-01 4.000329077E-01
 2.716230631E+00 4.211935997E-01 3.974018991E-01
 2.716230631E+00 4.237125516E-01 3.948133886E-01
 2.716230631E+00 4.261861444E-01 3.922675550E-01
 2.716230631E+00 4.286151528E-01 3.897644579E-01
 2.716230631E+00 4.310004115E-01 3.873040080E-01
 2.716230631E+00 4.333426952E-01 3.848861456E-01
 2.716230631E+00 4.356427789E-01 3.825106919E-01
 2.716230631E+00 4.379014373E-01 3.801774383E-01
 2.716230631E+00 4.401193559E-01 3.778860569E-01
 2.716230631E+00 4.422973394E-01 3.756362498E-01
 2.716230631E+00 4.444360435E-01 3.734276593E-01
 2.716230631E+00 4.465361834E-01 3.712598681E-01
 2.716230631E+00 4.485984445E-01 3.691324592E-01
 2.716230631E+00 4.506235421E-01 3.670449853E-01
 2.716230631E+00 4.526121318E-01 3.649969101E-01
 2.716230631E+00 4.545648396E-01 3.629877567E-01
 2.716230631E+00 4.564823210E-01 3.610170484E-01
 2.716230631E+00 4.583652318E-01 3.590842187E-01
 2.716230631E+00 4.602141380E-01 3.571887314E-01
 2.716230631E+00 4.620297253E-01 3.553300202E-01
 2.716230631E+00 4.638125002E-01 3.535075188E-01
 2.716230631E+00 4.655631483E-01 3.517206311E-01
 2.716230631E+00 4.672821760E-01 3.499689102E-01
 2.716230631E+00 4.689701498E-01 3.482516408E-01
 2.716230631E+00 4.706276953E-01 3.465683460E-01
 2.716230869E+00 4.722552896E-01 3.449184000E-01
 2.716230869E+00 4.738534689E-01 3.433012664E-01
 2.716230869E+00 4.754227996E-01 3.417162895E-01
 2.716230869E+00 4.769637883E-01 3.401629925E-01
 2.716230869E+00 4.784769118E-01 3.386407793E-01
 2.716230869E+00 4.799627364E-01 3.371490538E-01
 2.716230869E+00 4.814216793E-01 3.356873393E-01
 2.716230869E+00 4.828542769E-01 3.342550099E-01
 2.716230869E+00 4.842609465E-01 3.328515589E-01
 2.716230869E+00 4.856422246E-01 3.314763904E-01
 2.716230869E+00 4.869984984E-01 3.301290274E-01
 2.716230869E+00 4.883302748E-01 3.288089335E-01
 2.716230869E+00 4.896379411E-01 3.275155425E-01
 2.716230869E+00 4.909219742E-01 3.262483776E-01
 2.716230869E+00 4.921827614E-01 3.250069320E-01
 2.716230869E+00 4.934207499E-01 3.237907290E-01
 2.716230869E+00 4.946362972E-01 3.225992024E-01
 2.716230869E+00 4.958298802E-01 3.214319050E-01
 2.716230869E+00 4.970018268E-01 3.202883899E-01
 2.716230869E+00 4.981526136E-01 3.191681504E-01
 2.716230869E+00 4.992825091E-01 3.180707097E-01
 2.716230869E+00 5.003919601E-01 3.169956803E-01
 2.716230869E+00 5.014812946E-01 3.159425557E-01
 2.716230869E+00 5.025509000E-01 3.149109185E-01
 2.716230869E+00 5.036011338E-01 3.139003217E-01
 2.716230869E+00 5.046323538E-01 3.129103482E-01
 2.716230869E+00 5.056447983E-01 3.119405508E-01
 2.716230869E+00 5.066390038E-01 3.109905720E-01
 2.716230869E+00 5.076150894E-01 3.100599945E-01
 2.716230869E+00 5.085735321E-01 3.091484010E-01
 2.716230869E+00 5.095145702E-01 3.082554340E-01
 2.716230869E+00 5.104385018E-01 3.073807359E-01
 2.716230869E+00 5.113456845E-01 3.065238595E-01
 2.716230869E+00 5.122364163E-01 3.056844771E-01
 2.716230869E+00 5.131109357E-01 3.048622608E-01
 2.716230869E+00 5.139696002E-01 3.040568233E-01
 2.716230869E+00 5.148127079E-01 3.032678068E-01
 2.716230869E+00 5.156404376E-01 3.024949133E-01
 2.716230869E+00 5.164531469E-01 3.017377853E-01
 2.716230869E+00 5.172510743E-01 3.009961247E-01
 2.716230869E+00 5.180344582E-01 3.002696037E-01
 2.716230869E+00 5.188037157E-01 2.995578945E-01
 2.716230869E+00 5.195588470E-01 2.988606393E-01
 2.716230869E+00 5.203003287E-01 2.981776595E-01
 2.716230869E+00 5.210282803E-01 2.975085676E-01
 2.716230869E+00 5.217429996E-01 2.968530953E-01
 2.716230869E+00 5.224447250E-01 2.962110341E-01
 2.716230869E+00 5.231336355E-01 2.955819666E-01
 2.716230869E+00 5.238100290E-01 2.949657440E-01
 2.716230869E+00 5.244740844E-01 2.943620384E-01
 2.716230869E+00 5.251260400E-01 2.937706113E-01
 2.716230869E+00 5.257660747E-01 2.931912243E-01
 2.716230869E+00 5.263944864E-01 2.926236093E-01
 2.716230869E+00 5.270113945E-01 2.920674682E-01
 2.716230869E+00 5.276170969E-01 2.915226817E-01
 2.716230869E+00 5.282117128E-01 2.909889221E-01
 2.716230869E+00 5.287954807E-01 2.904659808E-01
 2.716230869E+00 5.293686390E-01 2.899536788E-01
 2.716230869E+00 5.299312472E-01 2.894517183E-01
 2.716230869E+00 5.304836035E-01 2.889599800E-01
 2.716230869E+00 5.310258865E-01 2.884781361E-01
 2.716230869E+00 5.315582752E-01 2.880060673E-01
 2.716230869E+00 5.320808887E-01 2.875435352E-01
 2.716230869E+00 5.325939655E-01 2.870903909E-01
 2.716230869E+00 5.330976248E-01 2.866463661E-01
 2.716230869E+00 5.335921049E-01 2.862113416E-01
 2.716230869E+00 5.340774655E-01 2.857850492E-01
 2.716230869E+00 5.345540047E-01 2.853673995E-01
 2.716230869E+00 5.350217819E-01 2.849581540E-01
 2.716230869E+00 5.354809761E-01 2.845571637E-01
 2.716230869E+00 5.359317660E-01 2.841642499E-01
 2.716230869E+00 5.363743305E-01 2.837792337E-01
 2.716230869E+00 5.368087292E-01 2.834019959E-01
 2.716230869E+00 5.372351408E-01 2.830323279E-01
 2.716230869E+00 5.376537442E-01 2.826700807E-01
 2.716230869E+00 5.380646586E-01 2.823151648E-01
 2.716230869E+00 5.384680033E-01 2.819673121E-01
 2.716230869E+00 5.388638973E-01 2.816264927E-01
 2.716230869E+00 5.392525792E-01 2.812924981E-01
 2.716230869E+00 5.396341085E-01 2.809651792E-01
 2.716230869E+00 5.400086045E-01 2.806444466E-01
 2.716230869E+00 5.403761864E-01 2.803301215E-01
 2.716230869E+00 5.407369733E-01 2.800221145E-01
 2.716230869E+00 5.410911441E-01 2.797202468E-01
 2.716230869E+00 5.414388180E-01 2.794244289E-01
 2.716230869E+00 5.417799950E-01 2.791345417E-01
 2.716230869E+00 5.421149731E-01 2.788504064E-01
 2.716230869E+00 5.424436927E-01 2.785720229E-01
 2.716230869E+00 5.427663326E-01 2.782991529E-01
 2.716230869E+00 5.430830717E-01 2.780317366E-01
 2.716230869E+00 5.433939099E-01 2.777696252E-01
 2.716230869E+00 5.436990261E-01 2.775127888E-01
 2.716230869E+00 5.439984202E-01 2.772610188E-01
 2.716230869E+00 5.442923903E-01 2.770143151E-01
 2.716230869E+00 5.445808172E-01 2.767724991E-01
 2.716230869E+00 5.448639393E-01 2.765355408E-01
 2.716230869E+00 5.451417565E-01 2.763032615E-01
 2.716230869E+00 5.454145074E-01 2.760756314E-01
 2.716230869E+00 5.456821322E-01 2.758525312E-01
 2.716230869E+00 5.459448099E-01 2.756327093E-01
 2.716230869E+00 5.462078452E-01 2.754120529E-01
 2.716230869E+00 5.464807153E-01 2.751854360E-01
 2.716230869E+00 5.467636585E-01 2.749507725E-01
 2.716230869E+00 5.470571518E-01 2.747077644E-01
 2.716230869E+00 5.473615527E-01 2.744560838E-01
 2.716230869E+00 5.476772189E-01 2.741954923E-01
 2.716230869E+00 5.480046868E-01 2.739256620E-01
 2.716230869E+00 5.483443141E-01 2.736462951E-01
 2.716230869E+00 5.486966372E-01 2.733570337E-01
 2.716230869E+00 5.490620732E-01 2.730575800E-01
 2.716230869E+00 5.494412184E-01 2.727475762E-01
 2.716230869E+00 5.498344898E-01 2.724266350E-01
 2.716230869E+00 5.502424836E-01 2.720944881E-01
 2.716230869E+00 5.506657958E-01 2.717507482E-01
 2.716230869E+00 5.511049032E-01 2.713949978E-01
 2.716230869E+00 5.515604615E-01 2.710269094E-01
 2.716230869E+00 5.520331264E-01 2.706460953E-01
 2.716230869E+00 5.525235534E-01 2.702520788E-01
 2.716230869E+00 5.530323386E-01 2.698445618E-01
 2.716230869E+00 5.535602570E-01 2.694230676E-01
 2.716230869E+00 5.541081429E-01 2.689872086E-01
 2.716230869E+00 5.546765327E-01 2.685365677E-01
 2.716230869E+00 5.552663207E-01 2.680707276E-01
 2.716230869E+00 5.558782816E-01 2.675893009E-01
 2.716230869E+00 5.565133095E-01 2.670918405E-01
 2.716230869E+00 5.571723580E-01 2.665778697E-01
 2.716230869E+00 5.578561425E-01 2.660470903E-01
 2.716230869E+00 5.585657954E-01 2.654990256E-01
 2.716230869E+00 5.593022704E-01 2.649332285E-01
 2.716230869E+00 5.600665212E-01 2.643494010E-01
 2.716230869E+00 5.608596206E-01 2.637470961E-01
 2.716230869E+00 5.616827011E-01 2.631259859E-01
 2.716230869E+00 5.625368953E-01 2.624857724E-01
 2.716230869E+00 5.634233952E-01 2.618261278E-01
 2.716230869E+00 5.643434525E-01 2.611467838E-01
 2.716230869E+00 5.652983189E-01 2.604475319E-01
 2.716230869E+00 5.662894249E-01 2.597281635E-01
 2.716230869E+00 5.673179626E-01 2.589886487E-01
 2.716230869E+00 5.683854818E-01 2.582288980E-01
 2.716230869E+00 5.694934726E-01 2.574490309E-01
 2.716230869E+00 5.706435442E-01 2.566491663E-01
 2.716230869E+00 5.718371272E-01 2.558296323E-01
 2.716230869E+00 5.730760694E-01 2.549907863E-01
 2.716230869E+00 5.743620396E-01 2.541333139E-01
 2.716230869E+00 5.756967068E-01 2.532580495E-01
 2.716230869E+00 5.770820975E-01 2.523659766E-01
 2.716230869E+00 5.785201192E-01 2.514584363E-01
 2.716231108E+00 5.800127983E-01 2.505370677E-01
 2.716231108E+00 5.815621018E-01 2.496039122E-01
 2.716231108E+00 5.831703544E-01 2.486614883E-01
 2.716231108E+00 5.848397017E-01 2.477126867E-01
 2.716231108E+00 5.865725279E-01 2.467612177E-01
 2.716231108E+00 5.883712769E-01 2.458113432E-01
 2.716231108E+00 5.902383327E-01 2.448682338E-01
 2.716231108E+00 5.921764970E-01 2.439378798E-01
 2.716231108E+00 5.941883922E-01 2.430275083E-01
 2.716231108E+00 5.962768197E-01 2.421452999E-01
 2.716231108E+00 5.984448195E-01 2.413009405E-01
 2.716231108E+00 6.006953120E-01 2.405052483E-01
 2.716231108E+00 6.030313969E-01 2.397705019E-01
 2.716231108E+00 6.054565310E-01 2.391100228E-01
 2.716231108E+00 6.079739928E-01 2.385379374E-01
 2.716231108E+00 6.105873585E-01 2.380685955E-01
 2.716231108E+00 6.133002639E-01 2.377156913E-01
 2.716231108E+00 6.161165237E-01 2.374911606E-01
 2.716231108E+00 6.190401316E-01 2.374040633E-01
 2.716231108E+00 6.220750809E-01 2.374595553E-01
 2.716231108E+00 6.252257824E-01 2.376582623E-01
 2.716231108E+00 6.284965873E-01 2.379963100E-01
 2.716231108E+00 6.318919659E-01 2.384661436E-01
 2.716231108E+00 6.354169250E-01 2.390575111E-01
 2.716231108E+00 6.390762329E-01 2.397588044E-01
 2.716231108E+00 6.428750157E-01 2.405581474E-01
 2.716231108E+00 6.468187571E-01 2.414438874E-01
 2.716231108E+00 6.509128809E-01 2.424049824E-01
 2.716231108E+00 6.551631093E-01 2.434305400E-01
 2.716231108E+00 6.595755219E-01 2.445096076E-01
 2.716231108E+00 6.641561985E-01 2.456300855E-01
 2.716231108E+00 6.689116955E-01 2.467779964E-01
 2.716231108E+00 6.738485098E-01 2.479360849E-01
 2.716231108E+00 6.789737344E-01 2.490825355E-01
 2.716231108E+00 6.842945218E-01 2.501896024E-01
 2.716231108E+00 6.898183227E-01 2.512226999E-01
 2.716231108E+00 6.955528855E-01 2.521415651E-01
 2.716231108E+00 7.015063167E-01 2.529050708E-01
 2.716231346E+00 7.076869011E-01 2.534814477E-01
 2.716231346E+00 7.141034007E-01 2.538623214E-01
 2.716231346E+00 7.207648158E-01 2.540714443E-01
 2.716231346E+00 7.276803851E-01 2.541590631E-01
 2.716231346E+00 7.348599434E-01 2.541813254E-01
 2.716231346E+00 7.423135042E-01 2.541793883E-01
 2.716231346E+00 7.500516176E-01 2.541728020E-01
 2.716231346E+00 7.580850720E-01 2.541666627E-01
 2.716231346E+00 7.664252520E-01 2.541611493E-01
 2.716231346E+00 7.750837207E-01 2.541559041E-01
 2.716231346E+00 7.840727568E-01 2.541510761E-01
 2.716231346E+00 7.934049964E-01 2.541466057E-01
 2.716231346E+00 8.030933738E-01 2.541425228E-01
 2.716231346E+00 8.131517172E-01 2.541388571E-01
 2.716231346E+00 8.235940933E-01 2.541354895E-01
 2.716231346E+00 8.344350457E-01 2.541325986E-01
 2.716231346E+00 8.456899524E-01 2.541300058E-01
 2.716231346E+00 8.573744893E-01 2.541278303E-01
 2.716231346E+00 8.695052862E-01 2.541260421E-01
 2.716231346E+00 8.820991516E-01 2.541246116E-01
 2.716231346E+00 8.951739073E-01 2.541235685E-01
 2.716231346E+00 9.087478518E-01 2.541228831E-01
 2.716231346E+00 9.228400588E-01 2.541225553E-01
 2.716231346E+00 9.374704361E-01 2.541225851E-01
 2.716231346E+00 9.526594281E-01 2.541229427E-01
 2.716231346E+00 9.684283733E-01 2.541236281E-01
 2.716231346E+00 9.847994447E-01 2.541246414E-01
 2.716231346E+00 1.001795650E+00 2.541259527E-01
 2.716231346E+00 1.019440889E+00 2.541275322E-01
 2.716231346E+00 1.037759900E+00 2.541294098E-01
 2.716231346E+00 1.056778431E+00 2.541315854E-01
 2.716231346E+00 1.076523185E+00 2.541339695E-01
 2.716231346E+00 1.097022176E+00 2.541366220E-01
 2.716231346E+00 1.118303776E+00 2.541394830E-01
 2.716231346E+00 1.140398145E+00 2.541425824E-01
 2.716231346E+00 1.163336158E+00 2.541458607E-01
 2.716231346E+00 1.187150240E+00 2.541493773E-01
 2.716231346E+00 1.211873770E+00 2.541530728E-01
 2.716231346E+00 1.237541556E+00 2.541569173E-01
 2.716231346E+00 1.264189363E+00 2.541609406E-01
 2.716231346E+00 1.291855216E+00 2.541650832E-01
 2.716231346E+00 1.320577383E+00 2.541694045E-01
 2.716231346E+00 1.350396514E+00 2.541738153E-01
 2.716231346E+00 1.381354809E+00 2.541783154E-01
 2.716231346E+00 1.413495183E+00 2.541829348E-01
 2.716231346E+00 1.446863294E+00 2.541876733E-01
 2.716231346E+00 1.481505871E+00 2.541924119E-01
 2.716231346E+00 1.517471552E+00 2.541972697E-01
 2.716231346E+00 1.554811001E+00 2.542021275E-01
 2.716231346E+00 1.593576789E+00 2.542069852E-01
 2.716231346E+00 1.633823276E+00 2.542118728E-01
 2.716231346E+00 1.675607085E+00 2.542168200E-01
 2.716231346E+00 1.718986988E+00 2.542216778E-01
 2.716231346E+00 1.764024019E+00 2.542264462E-01
 2.716231346E+00 1.810781598E+00 2.542311847E-01
 2.716231346E+00 1.859325409E+00 2.542358339E-01
 2.716231346E+00 1.909723759E+00 2.542403638E-01
 2.716231346E+00 1.962047577E+00 2.542447746E-01
 2.716231346E+00 2.016370535E+00 2.542490065E-01
 2.716231346E+00 2.072769165E+00 2.542530596E-01
 2.716231346E+00 2.131322622E+00 2.542568743E-01
 2.716231346E+00 2.192113161E+00 2.542604804E-01
 2.716231346E+00 2.255227089E+00 2.542638183E-01
 2.716231346E+00 2.320752382E+00 2.542668581E-01
 2.716231346E+00 2.388782024E+00 2.542695999E-01
 2.716231346E+00 2.459411383E+00 2.542719543E-01
 2.716231346E+00 2.532739878E+00 2.542739809E-01
 2.716231346E+00 2.608871460E+00 2.542755902E-01
 2.716231346E+00 2.687912703E+00 2.542767823E-01
 2.716231346E+00 2.769975185E+00 2.542775273E-01
 2.716231346E+00 2.855174780E+00 2.542777658E-01
 2.716231346E+00 2.943631172E+00 2.542775571E-01
 2.716231346E+00 3.035469055E+00 2.542768121E-01
 2.716231346E+00 3.130818367E+00 2.542755008E-01
 2.716231346E+00 3.229813099E+00 2.542736828E-01
 2.716231108E+00 3.332592964E+00 2.542712390E-01
 2.716231108E+00 3.439302921E+00 2.542682588E-01
 2.716231108E+00 3.550093174E+00 2.542646527E-01
 2.716231108E+00 3.665120602E+00 2.542604506E-01
 2.716231108E+00 3.784547091E+00 2.542556822E-01
 2.716230869E+00 3.908541203E+00 2.542502582E-01
 2.716230869E+00 4.037277699E+00 2.542441785E-01
 2.716230869E+00 4.170938015E+00 2.542375922E-01
 2.716230869E+00 4.309711456E+00 2.542303205E-01
 2.716230869E+00 4.453793526E+00 2.542224228E-01
 2.716230631E+00 4.603387356E+00 2.542140484E-01
 2.716230631E+00 4.758704185E+00 2.542050183E-01
 2.716230631E+00 4.919963837E+00 2.541954517E-01
 2.716230631E+00 5.087392807E+00 2.541852891E-01
 2.716230631E+00 5.261229038E+00 2.541746497E-01
 2.716230631E+00 5.441716671E+00 2.541634738E-01
 2.716230392E+00 5.629110336E+00 2.541518211E-01
 2.716230392E+00 5.823676109E+00 2.541396916E-01
 2.716230154E+00 6.025687218E+00 2.541271746E-01
 2.716230154E+00 6.235430241E+00 2.541141808E-01
 2.716229916E+00 6.453199863E+00 2.541007996E-01
 2.716229916E+00 6.679305077E+00 2.540870607E-01
 2.716229677E+00 6.914063931E+00 2.540729940E-01
 2.716229677E+00 7.157809734E+00 2.540585697E-01
 2.716229677E+00 7.410884857E+00 2.540439069E-01
 2.716229439E+00 7.673647881E+00 2.540289462E-01
 2.716229439E+00 7.946469784E+00 2.540137768E-01
 2.716229200E+00 8.229736328E+00 2.539983690E-01
 2.716229200E+00 8.523846626E+00 2.539827824E-01
 2.716229200E+00 8.829216957E+00 2.539670169E-01
 2.716228962E+00 9.146279335E+00 2.539511025E-01
 2.716228962E+00 9.475480080E+00 2.539350688E-01
 2.716228962E+00 9.817286491E+00 2.539188862E-01
 2.716228962E+00 1.017218018E+01 2.539027035E-01
 2.716229200E+00 1.054066372E+01 2.538863719E-01
 2.716229200E+00 1.092325687E+01 2.538700402E-01
 2.716229200E+00 1.132050037E+01 2.538536191E-01
 2.716229200E+00 1.173295593E+01 2.538371980E-01
 2.716229200E+00 1.216120815E+01 2.538207769E-01
 2.716229439E+00 1.260585976E+01 2.538043559E-01
 2.716229439E+00 1.306754208E+01 2.537879050E-01
 2.716229439E+00 1.354690647E+01 2.537714541E-01
 2.716229439E+00 1.404463196E+01 2.537550330E-01
 2.716229677E+00 1.456142235E+01 2.537386417E-01
 2.716229677E+00 1.509800816E+01 2.537222505E-01
 2.716229677E+00 1.565514946E+01 2.537058890E-01
 2.716229677E+00 1.623363495E+01 2.536895871E-01
 2.716229916E+00 1.683428192E+01 2.536732554E-01
 2.716229916E+00 1.745794296E+01 2.536570132E-01
 2.716230154E+00 1.810550117E+01 2.536408007E-01
 2.716230154E+00 1.877787399E+01 2.536246181E-01
 2.716230154E+00 1.947601509E+01 2.536084354E-01
 2.716230392E+00 2.020091248E+01 2.535923123E-01
 2.716230392E+00 2.095359802E+01 2.535762787E-01
 2.716230631E+00 2.173513412E+01 2.535602450E-01
 2.716230631E+00 2.254663658E+01 2.535442412E-01
 2.716230631E+00 2.338925552E+01 2.535283267E-01
 2.716230869E+00 2.426418877E+01 2.535124719E-01
 2.716230869E+00 2.517268181E+01 2.534966469E-01
 2.716230869E+00 2.611602402E+01 2.534809113E-01
 2.716231108E+00 2.709556580E+01 2.534652948E-01
 2.716231108E+00 2.811270142E+01 2.534497380E-01
 2.716231108E+00 2.916888046E+01 2.534342706E-01
 2.716231108E+00 3.026561356E+01 2.534189522E-01
 2.716231585E+00 3.140447044E+01 2.534036934E-01
 2.716232061E+00 3.258708572E+01 2.533886731E-01
 2.716232300E+00 3.381514740E+01 2.533737421E-01
 2.716232777E+00 3.509042358E+01 2.533589900E-01
 2.716233015E+00 3.641474915E+01 2.533444166E-01
 2.716233492E+00 3.779003525E+01 2.533300519E-01
 2.716233730E+00 3.921826553E+01 2.533159256E-01
 2.716234207E+00 4.070150757E+01 2.533020377E-01
 2.716234446E+00 4.224191284E+01 2.532883883E-01
 2.716234684E+00 4.384171677E+01 2.532750070E-01
 2.716234922E+00 4.550325775E+01 2.532619238E-01
 2.716235161E+00 4.722896194E+01 2.532491684E-01
 2.716235399E+00 4.902136230E+01 2.532367110E-01
 2.716235638E+00 5.088308334E+01 2.532246411E-01
 2.716235876E+00 5.281689072E+01 2.532128990E-01
 2.716235876E+00 5.482563782E+01 2.532015741E-01
 2.716236353E+00 5.691231155E+01 2.531906366E-01
 2.716236591E+00 5.908002472E+01 2.531801462E-01
 2.716236830E+00 6.133202362E+01 2.531701028E-01
 2.716236830E+00 6.367167664E+01 2.531605363E-01
 2.716236830E+00 6.610251617E+01 2.531515062E-01
 2.716236830E+00 6.862819672E+01 2.531429827E-01
 2.716236591E+00 7.125254822E+01 2.531350553E-01
 2.716236353E+00 7.397951508E+01 2.531277239E-01
 2.716235876E+00 7.681324005E+01 2.531209588E-01
 2.716234922E+00 7.975795746E+01 2.531149387E-01
 2.716233969E+00 8.281801605E+01 2.531096339E-01
 2.716233015E+00 8.599782562E+01 2.531051040E-01
 2.716231585E+00 8.930176544E+01 2.531014085E-01
 2.716230154E+00 9.273433685E+01 2.530986965E-01
 2.716229200E+00 9.629930115E+01 2.530969679E-01
 2.716229677E+00 1.000000000E+02 2.530963123E-01
zone, t="FUN3D"
    0.271623000E+01    0.000000000E+00    0.500520133E+00
    0.271623000E+01    0.341179236E-02    0.500520127E+00
    0.271623000E+01    0.687854589E-02    0.500520110E+00
    0.271623000E+01    0.103820614E-01    0.500520080E+00
    0.271623000E+01    0.139097433E-01    0.500520038E+00
    0.271623000E+01    0.174526939E-01    0.500519984E+00
    0.271623000E+01    0.210047452E-01    0.500519916E+00
    0.271623000E+01    0.245616199E-01    0.500519836E+00
    0.271623000E+01    0.281202605E-01    0.500519743E+00
    0.271623000E+01    0.316785634E-01    0.500519638E+00
    0.271623000E+01    0.352349811E-01    0.500519520E+00
    0.271623000E+01    0.387884666E-01    0.500519390E+00
    0.271623000E+01    0.423382227E-01    0.500519248E+00
    0.271623000E+01    0.458836794E-01    0.500519094E+00
    0.271623000E+01    0.494244101E-01    0.500518927E+00
    0.271623000E+01    0.529600870E-01    0.500518749E+00
    0.271623000E+01    0.564904605E-01    0.500518558E+00
    0.271623000E+01    0.600153316E-01    0.500518356E+00
    0.271623000E+01    0.635345385E-01    0.500518142E+00
    0.271623000E+01    0.670479535E-01    0.500517917E+00
    0.271623000E+01    0.705554584E-01    0.500517680E+00
    0.271623000E+01    0.740569706E-01    0.500517432E+00
    0.271623000E+01    0.775524074E-01    0.500517173E+00
    0.271623000E+01    0.810416947E-01    0.500516903E+00
    0.271623000E+01    0.845247771E-01    0.500516622E+00
    0.271623000E+01    0.880015879E-01    0.500516330E+00
    0.271623000E+01    0.914720855E-01    0.500516028E+00
    0.271623000E+01    0.949362288E-01    0.500515716E+00
    0.271623000E+01    0.983939773E-01    0.500515394E+00
    0.271623000E+01    0.101845290E+00    0.500515062E+00
    0.271623000E+01    0.105290134E+00    0.500514721E+00
    0.271623000E+01    0.108728482E+00    0.500514370E+00
    0.271623000E+01    0.112160299E+00    0.500514010E+00
    0.271623000E+01    0.115585572E+00    0.500513643E+00
    0.271623000E+01    0.119004278E+00    0.500513266E+00
    0.271623000E+01    0.122416383E+00    0.500512883E+00
    0.271623000E+01    0.125821877E+00    0.500512491E+00
    0.271623000E+01    0.129220747E+00    0.500512093E+00
    0.271623000E+01    0.132612969E+00    0.500511688E+00
    0.271623000E+01    0.135998533E+00    0.500511277E+00
    0.271623000E+01    0.139377426E+00    0.500510861E+00
    0.271623000E+01    0.141412232E+00    0.500510607E+00
    0.271623000E+01    0.142749625E+00    0.500510440E+00
    0.271623000E+01    0.146115151E+00    0.500510015E+00
    0.271623000E+01    0.149473959E+00    0.500509586E+00
    0.271623000E+01    0.152826058E+00    0.500509155E+00
    0.271623000E+01    0.156171436E+00    0.500508721E+00
    0.271623000E+01    0.159510103E+00    0.500508286E+00
    0.271623000E+01    0.162842018E+00    0.500507851E+00
    0.271623000E+01    0.166167209E+00    0.500507417E+00
    0.271623000E+01    0.169485669E+00    0.500506984E+00
    0.271623000E+01    0.172797379E+00    0.500506554E+00
    0.271623000E+01    0.176102348E+00    0.500506127E+00
    0.271623000E+01    0.179400576E+00    0.500505706E+00
    0.271623000E+01    0.182692041E+00    0.500505291E+00
    0.271623000E+01    0.185976776E+00    0.500504884E+00
    0.271623000E+01    0.189254746E+00    0.500504486E+00
    0.271623000E+01    0.192525983E+00    0.500504099E+00
    0.271623000E+01    0.195790468E+00    0.500503724E+00
    0.271623000E+01    0.199048205E+00    0.500503364E+00
    0.271623000E+01    0.202299191E+00    0.500503019E+00
    0.271623000E+01    0.205543446E+00    0.500502693E+00
    0.271623000E+01    0.208780953E+00    0.500502387E+00
    0.271623000E+01    0.212011732E+00    0.500502103E+00
    0.271623000E+01    0.215235783E+00    0.500501844E+00
    0.271623000E+01    0.218453096E+00    0.500501612E+00
    0.271623000E+01    0.221663686E+00    0.500501410E+00
    0.271623000E+01    0.224867545E+00    0.500501241E+00
    0.271623000E+01    0.228064705E+00    0.500501107E+00
    0.271623000E+01    0.231255140E+00    0.500501013E+00
    0.271623000E+01    0.234438870E+00    0.500500961E+00
    0.271623000E+01    0.237615916E+00    0.500500954E+00
    0.271623000E+01    0.240786251E+00    0.500500997E+00
    0.271623000E+01    0.243949896E+00    0.500501093E+00
    0.271623000E+01    0.247106872E+00    0.500501247E+00
    0.271623000E+01    0.250257171E+00    0.500501463E+00
    0.271623000E+01    0.253400780E+00    0.500501747E+00
    0.271623000E+01    0.256537755E+00    0.500502108E+00
    0.271623000E+01    0.259668054E+00    0.500502564E+00
    0.271623000E+01    0.262791700E+00    0.500503142E+00
    0.271623000E+01    0.265908715E+00    0.500503791E+00
    0.271623000E+01    0.269019092E+00    0.500503931E+00