# Planar shear case, sst, y=0
VARIABLES = "X"
"Y"
"U Velocity"
zone, t="CFL3D"
 0.000000000E+00 0.000000000E+00 5.026274323E-01
 7.821894437E-02 0.000000000E+00 5.025334358E-01
 1.568456888E-01 0.000000000E+00 5.023375154E-01
 2.358823568E-01 0.000000000E+00 5.021334291E-01
 3.153310716E-01 0.000000000E+00 5.019374490E-01
 3.951940238E-01 0.000000000E+00 5.017592907E-01
 4.754733145E-01 0.000000000E+00 5.016017556E-01
 5.561711788E-01 0.000000000E+00 5.014658570E-01
 6.372897029E-01 0.000000000E+00 5.013497472E-01
 7.188312411E-01 0.000000000E+00 5.012514591E-01
 8.007978201E-01 0.000000000E+00 5.011681914E-01
 8.831917644E-01 0.000000000E+00 5.010974407E-01
 9.660152793E-01 0.000000000E+00 5.010371804E-01
 1.049270511E+00 0.000000000E+00 5.009854436E-01
 1.132959962E+00 0.000000000E+00 5.009407997E-01
 1.217085600E+00 0.000000000E+00 5.009019375E-01
 1.301649928E+00 0.000000000E+00 5.008679032E-01
 1.386654973E+00 0.000000000E+00 5.008378029E-01
 1.472103357E+00 0.000000000E+00 5.008112788E-01
 1.557997227E+00 0.000000000E+00 5.007876754E-01
 1.644338846E+00 0.000000000E+00 5.007665753E-01
 1.731130600E+00 0.000000000E+00 5.007475019E-01
 1.818374872E+00 0.000000000E+00 5.007302761E-01
 1.906073928E+00 0.000000000E+00 5.007146001E-01
 1.994230270E+00 0.000000000E+00 5.007001162E-01
 2.082846165E+00 0.000000000E+00 5.006868243E-01
 2.171924114E+00 0.000000000E+00 5.006747246E-01
 2.261466503E+00 0.000000000E+00 5.006635785E-01
 2.351475716E+00 0.000000000E+00 5.006532669E-01
 2.441954136E+00 0.000000000E+00 5.006437302E-01
 2.532904387E+00 0.000000000E+00 5.006347299E-01
 2.624328852E+00 0.000000000E+00 5.006262660E-01
 2.716229677E+00 0.000000000E+00 5.006179810E-01
 2.808609962E+00 0.000000000E+00 5.006102324E-01
 2.901471615E+00 0.000000000E+00 5.006031394E-01
 2.994817495E+00 0.000000000E+00 5.005966425E-01
 3.088649988E+00 0.000000000E+00 5.005905032E-01
 3.182971954E+00 0.000000000E+00 5.005847216E-01
 3.277785301E+00 0.000000000E+00 5.005792379E-01
 3.373093128E+00 0.000000000E+00 5.005739927E-01
 3.468897820E+00 0.000000000E+00 5.005688667E-01
 3.565201998E+00 0.000000000E+00 5.005639791E-01
 3.662008286E+00 0.000000000E+00 5.005594492E-01
 3.759319305E+00 0.000000000E+00 5.005551577E-01
 3.857137680E+00 0.000000000E+00 5.005511045E-01
 3.955466032E+00 0.000000000E+00 5.005472302E-01
 4.054306984E+00 0.000000000E+00 5.005434752E-01
 4.153663158E+00 0.000000000E+00 5.005397201E-01
 4.253537178E+00 0.000000000E+00 5.005359650E-01
 4.353932381E+00 0.000000000E+00 5.005323291E-01
 4.454850674E+00 0.000000000E+00 5.005289912E-01
 4.556295395E+00 0.000000000E+00 5.005258918E-01
 4.658268452E+00 0.000000000E+00 5.005229712E-01
 4.760773659E+00 0.000000000E+00 5.005201101E-01
 4.863812923E+00 0.000000000E+00 5.005173087E-01
 4.967389584E+00 0.000000000E+00 5.005145669E-01
 5.071506500E+00 0.000000000E+00 5.005117655E-01
 5.176166058E+00 0.000000000E+00 5.005090237E-01
 5.281371117E+00 0.000000000E+00 5.005065203E-01
 5.387124538E+00 0.000000000E+00 5.005041361E-01
 5.493429661E+00 0.000000000E+00 5.005018115E-01
 5.600288868E+00 0.000000000E+00 5.004994869E-01
 5.707705021E+00 0.000000000E+00 5.004971623E-01
 5.815681458E+00 0.000000000E+00 5.004946589E-01
 5.924220562E+00 0.000000000E+00 5.004920363E-01
 6.033325672E+00 0.000000000E+00 5.004894137E-01
 6.142999649E+00 0.000000000E+00 5.004869699E-01
 6.253245354E+00 0.000000000E+00 5.004848242E-01
 6.364065647E+00 0.000000000E+00 5.004826188E-01
 6.475464344E+00 0.000000000E+00 5.004805923E-01
 6.587443352E+00 0.000000000E+00 5.004784465E-01
 6.700006008E+00 0.000000000E+00 5.004763603E-01
 6.813155651E+00 0.000000000E+00 5.004740357E-01
 6.926895618E+00 0.000000000E+00 5.004717112E-01
 7.041227818E+00 0.000000000E+00 5.004695654E-01
 7.156156540E+00 0.000000000E+00 5.004674196E-01
 7.271684647E+00 0.000000000E+00 5.004652739E-01
 7.387814999E+00 0.000000000E+00 5.004631281E-01
 7.504550457E+00 0.000000000E+00 5.004609823E-01
 7.621894836E+00 0.000000000E+00 5.004587173E-01
 7.739850521E+00 0.000000000E+00 5.004560947E-01
 7.858421803E+00 0.000000000E+00 5.004535317E-01
 7.977611065E+00 0.000000000E+00 5.004512072E-01
 8.097421646E+00 0.000000000E+00 5.004488826E-01
 8.217856407E+00 0.000000000E+00 5.004466772E-01
 8.338919640E+00 0.000000000E+00 5.004443526E-01
 8.460614204E+00 0.000000000E+00 5.004420280E-01
 8.582942963E+00 0.000000000E+00 5.004396439E-01
 8.705908775E+00 0.000000000E+00 5.004371405E-01
 8.829516411E+00 0.000000000E+00 5.004345775E-01
 8.953768730E+00 0.000000000E+00 5.004321337E-01
 9.078668594E+00 0.000000000E+00 5.004297495E-01
 9.204219818E+00 0.000000000E+00 5.004273653E-01
 9.330425262E+00 0.000000000E+00 5.004249811E-01
 9.457288742E+00 0.000000000E+00 5.004224181E-01
 9.584813118E+00 0.000000000E+00 5.004197359E-01
 9.713003159E+00 0.000000000E+00 5.004168153E-01
 9.841861725E+00 0.000000000E+00 5.004137754E-01
 9.971391678E+00 0.000000000E+00 5.004110336E-01
 1.010159683E+01 0.000000000E+00 5.004084706E-01
 1.023248100E+01 0.000000000E+00 5.004059076E-01
 1.036404705E+01 0.000000000E+00 5.004032850E-01
 1.049629974E+01 0.000000000E+00 5.004006624E-01
 1.062924099E+01 0.000000000E+00 5.003979206E-01
 1.076287651E+01 0.000000000E+00 5.003950000E-01
 1.089720821E+01 0.000000000E+00 5.003921390E-01
 1.103223991E+01 0.000000000E+00 5.003893375E-01
 1.116797638E+01 0.000000000E+00 5.003865957E-01
 1.130441952E+01 0.000000000E+00 5.003837943E-01
 1.144157505E+01 0.000000000E+00 5.003809929E-01
 1.157944489E+01 0.000000000E+00 5.003781319E-01
 1.171803379E+01 0.000000000E+00 5.003751516E-01
 1.185734463E+01 0.000000000E+00 5.003718734E-01
 1.199738312E+01 0.000000000E+00 5.003685355E-01
 1.213815022E+01 0.000000000E+00 5.003654957E-01
 1.227965260E+01 0.000000000E+00 5.003625154E-01
 1.242189217E+01 0.000000000E+00 5.003595352E-01
 1.256487274E+01 0.000000000E+00 5.003565550E-01
 1.270859909E+01 0.000000000E+00 5.003535151E-01
 1.285307503E+01 0.000000000E+00 5.003504157E-01
 1.299830437E+01 0.000000000E+00 5.003470778E-01
 1.314428997E+01 0.000000000E+00 5.003437400E-01
 1.329103756E+01 0.000000000E+00 5.003405213E-01
 1.343855000E+01 0.000000000E+00 5.003373623E-01
 1.358683109E+01 0.000000000E+00 5.003340840E-01
 1.373588562E+01 0.000000000E+00 5.003308058E-01
 1.388571739E+01 0.000000000E+00 5.003273487E-01
 1.403633022E+01 0.000000000E+00 5.003235936E-01
 1.418772793E+01 0.000000000E+00 5.003202558E-01
 1.433991528E+01 0.000000000E+00 5.003175139E-01
 1.449289608E+01 0.000000000E+00 5.003128052E-01
 1.464667416E+01 0.000000000E+00 5.002894402E-01
 1.480125427E+01 0.000000000E+00 5.002000332E-01
 1.495664024E+01 0.000000000E+00 4.999736547E-01
 1.511283588E+01 0.000000000E+00 4.995484948E-01
 1.526984692E+01 0.000000000E+00 4.989036024E-01
 1.542767525E+01 0.000000000E+00 4.980584681E-01
 1.558632755E+01 0.000000000E+00 4.970522821E-01
 1.574580669E+01 0.000000000E+00 4.959253967E-01
 1.590611649E+01 0.000000000E+00 4.947105646E-01
 1.606726265E+01 0.000000000E+00 4.934326410E-01
 1.622924995E+01 0.000000000E+00 4.921098650E-01
 1.639208031E+01 0.000000000E+00 4.907553792E-01
 1.655575943E+01 0.000000000E+00 4.893789887E-01
 1.672029305E+01 0.000000000E+00 4.879876673E-01
 1.688568306E+01 0.000000000E+00 4.865873158E-01
 1.705193710E+01 0.000000000E+00 4.851824343E-01
 1.721905708E+01 0.000000000E+00 4.837760925E-01
 1.738704872E+01 0.000000000E+00 4.823708236E-01
 1.755591583E+01 0.000000000E+00 4.809685051E-01
 1.772566223E+01 0.000000000E+00 4.795708656E-01
 1.789629555E+01 0.000000000E+00 4.781792462E-01
 1.806781769E+01 0.000000000E+00 4.767943621E-01
 1.824023438E+01 0.000000000E+00 4.754174352E-01
 1.841354942E+01 0.000000000E+00 4.740491807E-01
 1.858776665E+01 0.000000000E+00 4.726901054E-01
 1.876289368E+01 0.000000000E+00 4.713405669E-01
 1.893893433E+01 0.000000000E+00 4.700008929E-01
 1.911589241E+01 0.000000000E+00 4.686713517E-01
 1.929377365E+01 0.000000000E+00 4.673521221E-01
 1.947258186E+01 0.000000000E+00 4.660433829E-01
 1.965232086E+01 0.000000000E+00 4.647453427E-01
 1.983299828E+01 0.000000000E+00 4.634582698E-01
 2.001461792E+01 0.000000000E+00 4.621822536E-01
 2.019718361E+01 0.000000000E+00 4.609172046E-01
 2.038070107E+01 0.000000000E+00 4.596631229E-01
 2.056517601E+01 0.000000000E+00 4.584198892E-01
 2.075061226E+01 0.000000000E+00 4.571875632E-01
 2.093701553E+01 0.000000000E+00 4.559658766E-01
 2.112438965E+01 0.000000000E+00 4.547550678E-01
 2.131274223E+01 0.000000000E+00 4.535551667E-01
 2.150207520E+01 0.000000000E+00 4.523659945E-01
 2.169239616E+01 0.000000000E+00 4.511874318E-01
 2.188371086E+01 0.000000000E+00 4.500193894E-01
 2.207602119E+01 0.000000000E+00 4.488618374E-01
 2.226933479E+01 0.000000000E+00 4.477146268E-01
 2.246365547E+01 0.000000000E+00 4.465774298E-01
 2.265898895E+01 0.000000000E+00 4.454505444E-01
 2.285534286E+01 0.000000000E+00 4.443340003E-01
 2.305271912E+01 0.000000000E+00 4.432275295E-01
 2.325112343E+01 0.000000000E+00 4.421310425E-01
 2.345056343E+01 0.000000000E+00 4.410443008E-01
 2.365104294E+01 0.000000000E+00 4.399673343E-01
 2.385256767E+01 0.000000000E+00 4.388999641E-01
 2.405514336E+01 0.000000000E+00 4.378419518E-01
 2.425877380E+01 0.000000000E+00 4.367934167E-01
 2.446346664E+01 0.000000000E+00 4.357543290E-01
 2.466922760E+01 0.000000000E+00 4.347244799E-01
 2.487606049E+01 0.000000000E+00 4.337037504E-01
 2.508397102E+01 0.000000000E+00 4.326919913E-01
 2.529296684E+01 0.000000000E+00 4.316890836E-01
 2.550305176E+01 0.000000000E+00 4.306948483E-01
 2.571423149E+01 0.000000000E+00 4.297097921E-01
 2.592651367E+01 0.000000000E+00 4.287331700E-01
 2.613990211E+01 0.000000000E+00 4.277648032E-01
 2.635440254E+01 0.000000000E+00 4.268051088E-01
 2.657002068E+01 0.000000000E+00 4.258538187E-01
 2.678676414E+01 0.000000000E+00 4.249108434E-01
 2.700463676E+01 0.000000000E+00 4.239759743E-01
 2.722364616E+01 0.000000000E+00 4.230491817E-01
 2.744379616E+01 0.000000000E+00 4.221301675E-01
 2.766509438E+01 0.000000000E+00 4.212190807E-01
 2.788754654E+01 0.000000000E+00 4.203158319E-01
 2.811115837E+01 0.000000000E+00 4.194203615E-01
 2.833593559E+01 0.000000000E+00 4.185324609E-01
 2.856188583E+01 0.000000000E+00 4.176520109E-01
 2.878901291E+01 0.000000000E+00 4.167790413E-01
 2.901732445E+01 0.000000000E+00 4.159133136E-01
 2.924682617E+01 0.000000000E+00 4.150547087E-01
 2.947752571E+01 0.000000000E+00 4.142033160E-01
 2.970942688E+01 0.000000000E+00 4.133591652E-01
 2.994253731E+01 0.000000000E+00 4.125220776E-01
 3.017686272E+01 0.000000000E+00 4.116919637E-01
 3.041241074E+01 0.000000000E+00 4.108687043E-01
 3.064918518E+01 0.000000000E+00 4.100522101E-01
 3.088719559E+01 0.000000000E+00 4.092423916E-01
 3.112644577E+01 0.000000000E+00 4.084390402E-01
 3.136694336E+01 0.000000000E+00 4.076422751E-01
 3.160869598E+01 0.000000000E+00 4.068521261E-01
 3.185170746E+01 0.000000000E+00 4.060683846E-01
 3.209598541E+01 0.000000000E+00 4.052909613E-01
 3.234154129E+01 0.000000000E+00 4.045197666E-01
 3.258837128E+01 0.000000000E+00 4.037547410E-01
 3.283649445E+01 0.000000000E+00 4.029957354E-01
 3.308590698E+01 0.000000000E+00 4.022428989E-01
 3.333662033E+01 0.000000000E+00 4.014960229E-01
 3.358864212E+01 0.000000000E+00 4.007549882E-01
 3.384197617E+01 0.000000000E+00 4.000199735E-01
 3.409663010E+01 0.000000000E+00 3.992907703E-01
 3.435261536E+01 0.000000000E+00 3.985672891E-01
 3.460993195E+01 0.000000000E+00 3.978495002E-01
 3.486859131E+01 0.000000000E+00 3.971372843E-01
 3.512860107E+01 0.000000000E+00 3.964304924E-01
 3.538996124E+01 0.000000000E+00 3.957292140E-01
 3.565268707E+01 0.000000000E+00 3.950334489E-01
 3.591678619E+01 0.000000000E+00 3.943430781E-01
 3.618225861E+01 0.000000000E+00 3.936579525E-01
 3.644911575E+01 0.000000000E+00 3.929780722E-01
 3.671736145E+01 0.000000000E+00 3.923034072E-01
 3.698700714E+01 0.000000000E+00 3.916338086E-01
 3.725806046E+01 0.000000000E+00 3.909692168E-01
 3.753052521E+01 0.000000000E+00 3.903096616E-01
 3.780441284E+01 0.000000000E+00 3.896551728E-01
 3.807972717E+01 0.000000000E+00 3.890056312E-01
 3.835647583E+01 0.000000000E+00 3.883609772E-01
 3.863466644E+01 0.000000000E+00 3.877211213E-01
 3.891431046E+01 0.000000000E+00 3.870860040E-01
 3.919541168E+01 0.000000000E+00 3.864556551E-01
 3.947797775E+01 0.000000000E+00 3.858298659E-01
 3.976201630E+01 0.000000000E+00 3.852086663E-01
 4.004753494E+01 0.000000000E+00 3.845921159E-01
 4.033454514E+01 0.000000000E+00 3.839801252E-01
 4.062304688E+01 0.000000000E+00 3.833725154E-01
 4.091305923E+01 0.000000000E+00 3.827693164E-01
 4.120457840E+01 0.000000000E+00 3.821704984E-01
 4.149761963E+01 0.000000000E+00 3.815759122E-01
 4.179218674E+01 0.000000000E+00 3.809860945E-01
 4.208829117E+01 0.000000000E+00 3.804003298E-01
 4.238594055E+01 0.000000000E+00 3.798184395E-01
 4.268513870E+01 0.000000000E+00 3.792408407E-01
 4.298590088E+01 0.000000000E+00 3.786673844E-01
 4.328822708E+01 0.000000000E+00 3.780980110E-01
 4.359213257E+01 0.000000000E+00 3.775326908E-01
 4.389762115E+01 0.000000000E+00 3.769713342E-01
 4.420470047E+01 0.000000000E+00 3.764139116E-01
 4.451338196E+01 0.000000000E+00 3.758604527E-01
 4.482367325E+01 0.000000000E+00 3.753108382E-01
 4.513558578E+01 0.000000000E+00 3.747650683E-01
 4.544911957E+01 0.000000000E+00 3.742230833E-01
 4.576428986E+01 0.000000000E+00 3.736848533E-01
 4.608110046E+01 0.000000000E+00 3.731503189E-01
 4.639956665E+01 0.000000000E+00 3.726194501E-01
 4.671969223E+01 0.000000000E+00 3.720922172E-01
 4.704148483E+01 0.000000000E+00 3.715685904E-01
 4.736495972E+01 0.000000000E+00 3.710485399E-01
 4.769011688E+01 0.000000000E+00 3.705320060E-01
 4.801697159E+01 0.000000000E+00 3.700190187E-01
 4.834552765E+01 0.000000000E+00 3.695094883E-01
 4.867579651E+01 0.000000000E+00 3.690034151E-01
 4.900778961E+01 0.000000000E+00 3.685007095E-01
 4.934151459E+01 0.000000000E+00 3.680013120E-01
 4.967697525E+01 0.000000000E+00 3.675052822E-01
 5.001418686E+01 0.000000000E+00 3.670125306E-01
 5.035315704E+01 0.000000000E+00 3.665230572E-01
 5.069389725E+01 0.000000000E+00 3.660368025E-01
 5.103641129E+01 0.000000000E+00 3.655537665E-01
 5.138071060E+01 0.000000000E+00 3.650738299E-01
 5.172680283E+01 0.000000000E+00 3.645970523E-01
 5.207470322E+01 0.000000000E+00 3.641235828E-01
 5.242441559E+01 0.000000000E+00 3.636530936E-01
 5.277595139E+01 0.000000000E+00 3.631854951E-01
 5.312931824E+01 0.000000000E+00 3.627210259E-01
 5.348453140E+01 0.000000000E+00 3.622595072E-01
 5.384159470E+01 0.000000000E+00 3.618009686E-01
 5.420051956E+01 0.000000000E+00 3.613453507E-01
 5.456131363E+01 0.000000000E+00 3.608927131E-01
 5.492398834E+01 0.000000000E+00 3.604429066E-01
 5.528855896E+01 0.000000000E+00 3.599959612E-01
 5.565502548E+01 0.000000000E+00 3.595518172E-01
 5.602340317E+01 0.000000000E+00 3.591105342E-01
 5.639370346E+01 0.000000000E+00 3.586719334E-01
 5.676593399E+01 0.000000000E+00 3.582361341E-01
 5.714010620E+01 0.000000000E+00 3.578030467E-01
 5.751622772E+01 0.000000000E+00 3.573726118E-01
 5.789431000E+01 0.000000000E+00 3.569449484E-01
 5.827436066E+01 0.000000000E+00 3.565198779E-01
 5.865639496E+01 0.000000000E+00 3.560973704E-01
 5.904042435E+01 0.000000000E+00 3.556774855E-01
 5.942645264E+01 0.000000000E+00 3.552602232E-01
 5.981449509E+01 0.000000000E+00 3.548454344E-01
 6.020455933E+01 0.000000000E+00 3.544332087E-01
 6.059665680E+01 0.000000000E+00 3.540234864E-01
 6.099079895E+01 0.000000000E+00 3.536162674E-01
 6.138699722E+01 0.000000000E+00 3.532114923E-01
 6.178525925E+01 0.000000000E+00 3.528091311E-01
 6.218559647E+01 0.000000000E+00 3.524091542E-01
 6.258802414E+01 0.000000000E+00 3.520116508E-01
 6.299254608E+01 0.000000000E+00 3.516164124E-01
 6.339918137E+01 0.000000000E+00 3.512235880E-01
 6.380793381E+01 0.000000000E+00 3.508330882E-01
 6.421881866E+01 0.000000000E+00 3.504449427E-01
 6.463184357E+01 0.000000000E+00 3.500591815E-01
 6.504702759E+01 0.000000000E+00 3.496755064E-01
 6.546437073E+01 0.000000000E+00 3.492940664E-01
 6.588388824E+01 0.000000000E+00 3.489148319E-01
 6.630559540E+01 0.000000000E+00 3.485378325E-01
 6.672949982E+01 0.000000000E+00 3.481630087E-01
 6.715561676E+01 0.000000000E+00 3.477903605E-01
 6.758395386E+01 0.000000000E+00 3.474199474E-01
 6.801452637E+01 0.000000000E+00 3.470516205E-01
 6.844734192E+01 0.000000000E+00 3.466853499E-01
 6.888241577E+01 0.000000000E+00 3.463211656E-01
 6.931975555E+01 0.000000000E+00 3.459591568E-01
 6.975937653E+01 0.000000000E+00 3.455990851E-01
 7.020128632E+01 0.000000000E+00 3.452410996E-01
 7.064550781E+01 0.000000000E+00 3.448851407E-01
 7.109204102E+01 0.000000000E+00 3.445312977E-01
 7.154090118E+01 0.000000000E+00 3.441793919E-01
 7.199209595E+01 0.000000000E+00 3.438293636E-01
 7.244564819E+01 0.000000000E+00 3.434813023E-01
 7.290156555E+01 0.000000000E+00 3.431351483E-01
 7.335986328E+01 0.000000000E+00 3.427909911E-01
 7.382054901E+01 0.000000000E+00 3.424486816E-01
 7.428363037E+01 0.000000000E+00 3.421082497E-01
 7.474913025E+01 0.000000000E+00 3.417697549E-01
 7.521705627E+01 0.000000000E+00 3.414331377E-01
 7.568742371E+01 0.000000000E+00 3.410982788E-01
 7.616024780E+01 0.000000000E+00 3.407652676E-01
 7.663552856E+01 0.000000000E+00 3.404340446E-01
 7.711328888E+01 0.000000000E+00 3.401046395E-01
 7.759354401E+01 0.000000000E+00 3.397770524E-01
 7.807630157E+01 0.000000000E+00 3.394512236E-01
 7.856156921E+01 0.000000000E+00 3.391271532E-01
 7.904937744E+01 0.000000000E+00 3.388048112E-01
 7.953971863E+01 0.000000000E+00 3.384842277E-01
 8.003262329E+01 0.000000000E+00 3.381652534E-01
 8.052809906E+01 0.000000000E+00 3.378479779E-01
 8.102615356E+01 0.000000000E+00 3.375323713E-01
 8.152680206E+01 0.000000000E+00 3.372184336E-01
 8.203006744E+01 0.000000000E+00 3.369061649E-01
 8.253594971E+01 0.000000000E+00 3.365955651E-01
 8.304447937E+01 0.000000000E+00 3.362866342E-01
 8.355564880E+01 0.000000000E+00 3.359792531E-01
 8.406948853E+01 0.000000000E+00 3.356734514E-01
 8.458601379E+01 0.000000000E+00 3.353692293E-01
 8.510522461E+01 0.000000000E+00 3.350666165E-01
 8.562714386E+01 0.000000000E+00 3.347655535E-01
 8.615177917E+01 0.000000000E+00 3.344660699E-01
 8.667915344E+01 0.000000000E+00 3.341681361E-01
 8.720928192E+01 0.000000000E+00 3.338717520E-01
 8.774217224E+01 0.000000000E+00 3.335768282E-01
 8.827783203E+01 0.000000000E+00 3.332833946E-01
 8.881629181E+01 0.000000000E+00 3.329914808E-01
 8.935755920E+01 0.000000000E+00 3.327010274E-01
 8.990164948E+01 0.000000000E+00 3.324119747E-01
 9.044857788E+01 0.000000000E+00 3.321244717E-01
 9.099835205E+01 0.000000000E+00 3.318383694E-01
 9.155099487E+01 0.000000000E+00 3.315536976E-01
 9.210652161E+01 0.000000000E+00 3.312704861E-01
 9.266493988E+01 0.000000000E+00 3.309886456E-01
 9.322627258E+01 0.000000000E+00 3.307082355E-01
 9.379052734E+01 0.000000000E+00 3.304292262E-01
 9.435772705E+01 0.000000000E+00 3.301516175E-01
 9.492788696E+01 0.000000000E+00 3.298753798E-01
 9.550101471E+01 0.000000000E+00 3.296003938E-01
 9.607713318E+01 0.000000000E+00 3.293268085E-01
 9.665625000E+01 0.000000000E+00 3.290546536E-01
 9.723839569E+01 0.000000000E+00 3.287837207E-01
 9.782357025E+01 0.000000000E+00 3.285141289E-01
 9.841179657E+01 0.000000000E+00 3.282457888E-01
 9.900308990E+01 0.000000000E+00 3.279787898E-01
 9.959746552E+01 0.000000000E+00 3.277131021E-01
 1.001949387E+02 0.000000000E+00 3.274486959E-01
 1.007955322E+02 0.000000000E+00 3.271855116E-01
 1.013992538E+02 0.000000000E+00 3.269236386E-01
 1.020061188E+02 0.000000000E+00 3.266629577E-01
 1.026161499E+02 0.000000000E+00 3.264035881E-01
 1.032293625E+02 0.000000000E+00 3.261454105E-01
 1.038457718E+02 0.000000000E+00 3.258884847E-01
 1.044653931E+02 0.000000000E+00 3.256327510E-01
 1.050882492E+02 0.000000000E+00 3.253782988E-01
 1.057143478E+02 0.000000000E+00 3.251250088E-01
 1.063437195E+02 0.000000000E+00 3.248728812E-01
 1.069763641E+02 0.000000000E+00 3.246219456E-01
 1.076123047E+02 0.000000000E+00 3.243721426E-01
 1.082515717E+02 0.000000000E+00 3.241235614E-01
 1.088941650E+02 0.000000000E+00 3.238760531E-01
 1.095401077E+02 0.000000000E+00 3.236297667E-01
 1.101894150E+02 0.000000000E+00 3.233846426E-01
 1.108421097E+02 0.000000000E+00 3.231406510E-01
 1.114982147E+02 0.000000000E+00 3.228977025E-01
 1.121577301E+02 0.000000000E+00 3.226559460E-01
 1.128206863E+02 0.000000000E+00 3.224152625E-01
 1.134871063E+02 0.000000000E+00 3.221757114E-01
 1.141569901E+02 0.000000000E+00 3.219372630E-01
 1.148303757E+02 0.000000000E+00 3.216998875E-01
 1.155072632E+02 0.000000000E+00 3.214635849E-01
 1.161876907E+02 0.000000000E+00 3.212283552E-01
 1.168716583E+02 0.000000000E+00 3.209941685E-01
 1.175591888E+02 0.000000000E+00 3.207610846E-01
 1.182503128E+02 0.000000000E+00 3.205290139E-01
 1.189450302E+02 0.000000000E+00 3.202979565E-01
 1.196433792E+02 0.000000000E+00 3.200679421E-01
 1.203453598E+02 0.000000000E+00 3.198390007E-01
 1.210510025E+02 0.000000000E+00 3.196110725E-01
 1.217603302E+02 0.000000000E+00 3.193841279E-01
 1.224733505E+02 0.000000000E+00 3.191582263E-01
 1.231900864E+02 0.000000000E+00 3.189332783E-01
 1.239105682E+02 0.000000000E+00 3.187093437E-01
 1.246347961E+02 0.000000000E+00 3.184864223E-01
 1.253628082E+02 0.000000000E+00 3.182644844E-01
 1.260946121E+02 0.000000000E+00 3.180435002E-01
 1.268302307E+02 0.000000000E+00 3.178234696E-01
 1.275696793E+02 0.000000000E+00 3.176044226E-01
 1.283129883E+02 0.000000000E+00 3.173863292E-01
 1.290601807E+02 0.000000000E+00 3.171692193E-01
 1.298112488E+02 0.000000000E+00 3.169530332E-01
 1.305662537E+02 0.000000000E+00 3.167377412E-01
 1.313251801E+02 0.000000000E+00 3.165234029E-01
 1.320880737E+02 0.000000000E+00 3.163099885E-01
 1.328549347E+02 0.000000000E+00 3.160974979E-01
 1.336257935E+02 0.000000000E+00 3.158859015E-01
 1.344006805E+02 0.000000000E+00 3.156752586E-01
 1.351796112E+02 0.000000000E+00 3.154655099E-01
 1.359625854E+02 0.000000000E+00 3.152566254E-01
 1.367496490E+02 0.000000000E+00 3.150486350E-01
 1.375408173E+02 0.000000000E+00 3.148415685E-01
 1.383361206E+02 0.000000000E+00 3.146353364E-01
 1.391355591E+02 0.000000000E+00 3.144299984E-01
 1.399391632E+02 0.000000000E+00 3.142254651E-01
 1.407469635E+02 0.000000000E+00 3.140218556E-01
 1.415589752E+02 0.000000000E+00 3.138191104E-01
 1.423752136E+02 0.000000000E+00 3.136171997E-01
 1.431957092E+02 0.000000000E+00 3.134160638E-01
 1.440204926E+02 0.000000000E+00 3.132158518E-01
 1.448495636E+02 0.000000000E+00 3.130164742E-01
 1.456829681E+02 0.000000000E+00 3.128179312E-01
 1.465207062E+02 0.000000000E+00 3.126201332E-01
 1.473628235E+02 0.000000000E+00 3.124231994E-01
 1.482093201E+02 0.000000000E+00 3.122271001E-01
 1.490602417E+02 0.000000000E+00 3.120317459E-01
 1.499155884E+02 0.000000000E+00 3.118372560E-01
 1.507753906E+02 0.000000000E+00 3.116435111E-01
 1.516396942E+02 0.000000000E+00 3.114506006E-01
 1.525084839E+02 0.000000000E+00 3.112584651E-01
 1.533818207E+02 0.000000000E+00 3.110671043E-01
 1.542597046E+02 0.000000000E+00 3.108765185E-01
 1.551421509E+02 0.000000000E+00 3.106867373E-01
 1.560292206E+02 0.000000000E+00 3.104977012E-01
 1.569208984E+02 0.000000000E+00 3.103094101E-01
 1.578172302E+02 0.000000000E+00 3.101218939E-01
 1.587182465E+02 0.000000000E+00 3.099351525E-01
 1.596239471E+02 0.000000000E+00 3.097491264E-01
 1.605343628E+02 0.000000000E+00 3.095638752E-01
 1.614495392E+02 0.000000000E+00 3.093793392E-01
 1.623694916E+02 0.000000000E+00 3.091955483E-01
 1.632942200E+02 0.000000000E+00 3.090124726E-01
 1.642237854E+02 0.000000000E+00 3.088301420E-01
 1.651581879E+02 0.000000000E+00 3.086485267E-01
 1.660974731E+02 0.000000000E+00 3.084675968E-01
 1.670416412E+02 0.000000000E+00 3.082874417E-01
 1.679907379E+02 0.000000000E+00 3.081079423E-01
 1.689447937E+02 0.000000000E+00 3.079291582E-01
 1.699038086E+02 0.000000000E+00 3.077510893E-01
 1.708678284E+02 0.000000000E+00 3.075737059E-01
 1.718368683E+02 0.000000000E+00 3.073970377E-01
 1.728109741E+02 0.000000000E+00 3.072209954E-01
 1.737901459E+02 0.000000000E+00 3.070456684E-01
 1.747744293E+02 0.000000000E+00 3.068710268E-01
 1.757638397E+02 0.000000000E+00 3.066970706E-01
 1.767584076E+02 0.000000000E+00 3.065237403E-01
 1.777581635E+02 0.000000000E+00 3.063510656E-01
 1.787631378E+02 0.000000000E+00 3.061791062E-01
 1.797733459E+02 0.000000000E+00 3.060077429E-01
 1.807888184E+02 0.000000000E+00 3.058370948E-01
 1.818095856E+02 0.000000000E+00 3.056671023E-01
 1.828356781E+02 0.000000000E+00 3.054977059E-01
 1.838671265E+02 0.000000000E+00 3.053290248E-01
 1.849039459E+02 0.000000000E+00 3.051609099E-01
 1.859461670E+02 0.000000000E+00 3.049935102E-01
 1.869938202E+02 0.000000000E+00 3.048267663E-01
 1.880469360E+02 0.000000000E+00 3.046607375E-01
 1.891055603E+02 0.000000000E+00 3.044953644E-01
 1.901696777E+02 0.000000000E+00 3.043307364E-01
 1.912393646E+02 0.000000000E+00 3.041669726E-01
 1.923146057E+02 0.000000000E+00 3.040041924E-01
 1.933954773E+02 0.000000000E+00 3.038425148E-01
 1.944819641E+02 0.000000000E+00 3.036825061E-01
 1.955741272E+02 0.000000000E+00 3.035244346E-01
 1.966719818E+02 0.000000000E+00 3.033697307E-01
 1.977755585E+02 0.000000000E+00 3.032246828E-01
 1.988848877E+02 0.000000000E+00 3.030829132E-01
 2.000000000E+02 0.000000000E+00 3.030100763E-01
zone, t="FUN3D"
   -0.100000000E+02    0.341225170E-06    0.464726305E+00
   -0.992182541E+01    0.341225170E-06    0.464822316E+00
   -0.984365177E+01    0.341225170E-06    0.465179643E+00
   -0.976547813E+01    0.341225170E-06    0.465640990E+00
   -0.968730640E+01    0.341225170E-06    0.466173352E+00
   -0.960913467E+01    0.341225170E-06    0.466707432E+00
   -0.953096390E+01    0.341225170E-06    0.467217223E+00
   -0.945279407E+01    0.341225170E-06    0.467683428E+00
   -0.937462521E+01    0.341225170E-06    0.468100446E+00
   -0.929645634E+01    0.341225170E-06    0.468470808E+00
   -0.921828937E+01    0.341225170E-06    0.468804099E+00
   -0.914012241E+01    0.341225170E-06    0.469114378E+00
   -0.906195641E+01    0.341225170E-06    0.469415808E+00
   -0.898379135E+01    0.341225170E-06    0.469719580E+00
   -0.890562630E+01    0.341225170E-06    0.470032304E+00
   -0.882746315E+01    0.341225170E-06    0.470356455E+00
   -0.874930000E+01    0.341225170E-06    0.470691639E+00
   -0.867113781E+01    0.341225170E-06    0.471035978E+00
   -0.859297657E+01    0.341225170E-06    0.471387129E+00
   -0.851481628E+01    0.341225170E-06    0.471742883E+00
   -0.843665600E+01    0.341225170E-06    0.472101407E+00
   -0.835849667E+01    0.341225170E-06    0.472461273E+00
   -0.828033924E+01    0.341225170E-06    0.472821417E+00
   -0.820218182E+01    0.341225170E-06    0.473181075E+00
   -0.812402534E+01    0.341225170E-06    0.473539680E+00
   -0.804586887E+01    0.341225170E-06    0.473896834E+00
   -0.796771383E+01    0.341225170E-06    0.474252239E+00
   -0.788955975E+01    0.341225170E-06    0.474605693E+00
   -0.781140614E+01    0.341225170E-06    0.474957059E+00
   -0.773325348E+01    0.341225170E-06    0.475306243E+00
   -0.765510130E+01    0.341225170E-06    0.475653196E+00
   -0.757695007E+01    0.341225170E-06    0.475997892E+00
   -0.749879980E+01    0.341225170E-06    0.476340332E+00
   -0.742065048E+01    0.341225170E-06    0.476680534E+00
   -0.734250164E+01    0.341225170E-06    0.477018530E+00
   -0.726435328E+01    0.341225170E-06    0.477354360E+00
   -0.718620634E+01    0.341225170E-06    0.477688063E+00
   -0.710805988E+01    0.341225170E-06    0.478019696E+00
   -0.702991390E+01    0.341225170E-06    0.478349307E+00
   -0.695176887E+01    0.341225170E-06    0.478676948E+00
   -0.687362480E+01    0.341225170E-06    0.479002672E+00
   -0.679548168E+01    0.341225170E-06    0.479326531E+00
   -0.671733904E+01    0.341225170E-06    0.479648577E+00
   -0.663919735E+01    0.341225170E-06    0.479968861E+00
   -0.656105614E+01    0.341225170E-06    0.480287434E+00
   -0.648291588E+01    0.341225170E-06    0.480604343E+00
   -0.640477657E+01    0.341225170E-06    0.480919634E+00
   -0.632663775E+01    0.341225170E-06    0.481233355E+00
   -0.624849987E+01    0.341225170E-06    0.481545547E+00
   -0.617036295E+01    0.341225170E-06    0.481856253E+00
   -0.609222651E+01    0.341225170E-06    0.482165513E+00
   -0.601409101E+01    0.341225170E-06    0.482473367E+00
   -0.593595600E+01    0.341225170E-06    0.482779850E+00
   -0.585782242E+01    0.341225170E-06    0.483084997E+00
   -0.577968883E+01    0.341225170E-06    0.483388846E+00
   -0.570155668E+01    0.341225170E-06    0.483691424E+00
   -0.562342501E+01    0.341225170E-06    0.483992767E+00
   -0.554529428E+01    0.341225170E-06    0.484292903E+00
   -0.546716404E+01    0.341225170E-06    0.484591862E+00
   -0.538903475E+01    0.341225170E-06    0.484889671E+00
   -0.531090641E+01    0.341225170E-06    0.485186355E+00
   -0.523277855E+01    0.341225170E-06    0.485481944E+00
   -0.515465164E+01    0.341225170E-06    0.485776459E+00
   -0.507652521E+01    0.341225170E-06    0.486069927E+00
   -0.499840021E+01    0.341225170E-06    0.486362366E+00
   -0.492027521E+01    0.341225170E-06    0.486653803E+00
   -0.484215164E+01    0.341225170E-06    0.486944256E+00
   -0.476402855E+01    0.341225170E-06    0.487233748E+00
   -0.468590641E+01    0.341225170E-06    0.487522297E+00
   -0.460778475E+01    0.341225170E-06    0.487809925E+00
   -0.452966404E+01    0.341225170E-06    0.488096647E+00
   -0.445154428E+01    0.341225170E-06    0.488382482E+00
   -0.437342501E+01    0.341225170E-06    0.488667449E+00
   -0.429530668E+01    0.341225170E-06    0.488951563E+00
   -0.421718931E+01    0.341225170E-06    0.489234840E+00
   -0.413907242E+01    0.341225170E-06    0.489517297E+00
   -0.406095648E+01    0.341225170E-06    0.489798948E+00
   -0.398284101E+01    0.341225170E-06    0.490079810E+00
   -0.390472674E+01    0.341225170E-06    0.490359894E+00
   -0.382661295E+01    0.341225170E-06    0.490639217E+00
   -0.374850011E+01    0.341225170E-06    0.490917791E+00
   -0.367038798E+01    0.341225170E-06    0.491195628E+00