VARIABLES = "y","uuprime","wwprime","vvprime"
ZONE T="CFL3D, SA"
 4.999999987E-07 4.089554390E-11 4.089554043E-11 4.089553696E-11
 1.000465204E-06 3.527784453E-10 3.527783898E-10 3.527783343E-10
 1.501861107E-06 1.516759052E-09 1.516758719E-09 1.516758386E-09
 2.004654107E-06 4.511608864E-09 4.511607532E-09 4.511606200E-09
 2.509312253E-06 1.073284039E-08 1.073283684E-08 1.073283329E-08
 3.016304618E-06 2.201838534E-08 2.201837646E-08 2.201836757E-08
 3.526103228E-06 4.068227000E-08 4.068224868E-08 4.068223092E-08
 4.039182386E-06 6.955672660E-08 6.955668397E-08 6.955664844E-08
 4.556018666E-06 1.120433168E-07 1.120432458E-07 1.120431747E-07
 5.077094102E-06 1.721741256E-07 1.721740119E-07 1.721738840E-07
 5.602892543E-06 2.546829307E-07 2.546827318E-07 2.546825328E-07
 6.133903298E-06 3.650887379E-07 3.650884253E-07 3.650881411E-07
 6.670620678E-06 5.097917892E-07 5.097913345E-07 5.097908797E-07
 7.213543540E-06 6.961833492E-07 6.961826102E-07 6.961819849E-07
 7.763177564E-06 9.327713428E-07 9.327703765E-07 9.327693533E-07
 8.320033885E-06 1.229322720E-06 1.229321470E-06 1.229319992E-06
 8.884630006E-06 1.597024834E-06 1.597022901E-06 1.597020969E-06
 9.457491615E-06 2.048667511E-06 2.048665010E-06 2.048662282E-06
 1.003915168E-05 2.598847914E-06 2.598844503E-06 2.598840865E-06
 1.063015134E-05 3.264199449E-06 3.264194675E-06 3.264189900E-06
 1.123103993E-05 4.063647793E-06 4.063641427E-06 4.063635060E-06
 1.184237772E-05 5.018703177E-06 5.018694992E-06 5.018686807E-06
 1.246473221E-05 6.153768481E-06 6.153758022E-06 6.153747563E-06
 1.309868276E-05 7.496500530E-06 7.496486887E-06 7.496473245E-06
 1.374481872E-05 9.078193216E-06 9.078175935E-06 9.078158655E-06
 1.440374217E-05 1.093421088E-05 1.093418905E-05 1.093416813E-05
 1.507606521E-05 1.310444350E-05 1.310441621E-05 1.310438984E-05
 1.576241448E-05 1.563383194E-05 1.563379919E-05 1.563376645E-05
 1.646342571E-05 1.857288771E-05 1.857284587E-05 1.857280404E-05
 1.717975465E-05 2.197830690E-05 2.197825597E-05 2.197820504E-05
 1.791206523E-05 2.591355951E-05 2.591349585E-05 2.591343400E-05
 1.866104139E-05 3.044957703E-05 3.044949881E-05 3.044942241E-05
 1.942737617E-05 3.566534360E-05 3.566524902E-05 3.566515443E-05
 2.021178625E-05 4.164866914E-05 4.164855272E-05 4.164843631E-05
 2.101499740E-05 4.849674951E-05 4.849661127E-05 4.849646939E-05
 2.183776087E-05 5.631688327E-05 5.631671593E-05 5.631654858E-05
 2.268083881E-05 6.522692274E-05 6.522671902E-05 6.522651529E-05
 2.354501703E-05 7.535584155E-05 7.535560144E-05 7.535536133E-05
 2.443110134E-05 8.684401837E-05 8.684372733E-05 8.684343629E-05
 2.533991210E-05 9.984318604E-05 9.984283679E-05 9.984248754E-05
 2.627229696E-05 1.145164788E-04 1.145160713E-04 1.145156493E-04
 2.722912359E-05 1.310377702E-04 1.310372754E-04 1.310367807E-04
 2.821128328E-05 1.495907782E-04 1.495901961E-04 1.495895995E-04
 2.921968553E-05 1.703673624E-04 1.703666640E-04 1.703659800E-04
 3.025527258E-05 1.935657638E-04 1.935649343E-04 1.935641194E-04
 3.131900667E-05 2.193875262E-04 2.193865512E-04 2.193855908E-04
 3.241187733E-05 2.480339317E-04 2.480327967E-04 2.480316616E-04
 3.353489956E-05 2.797013731E-04 2.797000634E-04 2.796987246E-04
 3.468912109E-05 3.145764058E-04 3.145748633E-04 3.145733208E-04
 3.587561514E-05 3.528290836E-04 3.528272500E-04 3.528254456E-04
 3.709548400E-05 3.946061188E-04 3.946040233E-04 3.946018987E-04
 3.834985910E-05 4.400235193E-04 4.400210746E-04 4.400186008E-04
 3.963991549E-05 4.891587887E-04 4.891559365E-04 4.891530843E-04
 4.096685007E-05 5.420426023E-04 5.420393427E-04 5.420360249E-04
 4.233189611E-05 5.986519391E-04 5.986481556E-04 5.986443721E-04
 4.373632328E-05 6.589033292E-04 6.588989636E-04 6.588946562E-04
 4.518143760E-05 7.226483431E-04 7.226432790E-04 7.226383314E-04
 4.666858513E-05 7.896705065E-04 7.896648021E-04 7.896590396E-04
 4.819914830E-05 8.596851840E-04 8.596786647E-04 8.596721455E-04
 4.977455319E-05 9.323422564E-04 9.323348058E-04 9.323274135E-04
 5.139626228E-05 1.007231418E-03 1.007222920E-03 1.007214538E-03
 5.306578896E-05 1.083891257E-03 1.083881711E-03 1.083872165E-03
 5.478467938E-05 1.161820022E-03 1.161809196E-03 1.161798486E-03
 5.655453788E-05 1.240489655E-03 1.240477548E-03 1.240465441E-03
 5.837701246E-05 1.319359872E-03 1.319346251E-03 1.319332630E-03
 6.025379116E-05 1.397893298E-03 1.397878164E-03 1.397862798E-03
 6.218662747E-05 1.475571655E-03 1.475554658E-03 1.475537661E-03
 6.417731493E-05 1.551907393E-03 1.551888417E-03 1.551869442E-03
 6.622770888E-05 1.626456389E-03 1.626435318E-03 1.626414247E-03
 6.833971565E-05 1.698827255E-03 1.698803855E-03 1.698780572E-03
 7.051529974E-05 1.768686925E-03 1.768661081E-03 1.768635237E-03
 7.275648386E-05 1.835764386E-03 1.835735980E-03 1.835707342E-03
 7.506535621E-05 1.899851719E-03 1.899820287E-03 1.899788971E-03
 7.744405593E-05 1.960801426E-03 1.960766967E-03 1.960732508E-03
 7.989480946E-05 2.018524334E-03 2.018486615E-03 2.018448897E-03
 8.241988689E-05 2.072982723E-03 2.072941512E-03 2.072900534E-03
 8.502163837E-05 2.124185907E-03 2.124141203E-03 2.124096267E-03
 8.770249406E-05 2.172182314E-03 2.172133652E-03 2.172084525E-03
 9.046493506E-05 2.217052970E-03 2.216999885E-03 2.216946799E-03
 9.331152978E-05 2.258904977E-03 2.258847700E-03 2.258790191E-03
 9.624494123E-05 2.297866158E-03 2.297804225E-03 2.297742059E-03
 9.926789062E-05 2.334077843E-03 2.334010787E-03 2.333943732E-03
 1.023831865E-04 2.367690904E-03 2.367618727E-03 2.367546316E-03
 1.055937319E-04 2.398860874E-03 2.398783574E-03 2.398705808E-03
 1.089025172E-04 2.427745843E-03 2.427662956E-03 2.427579602E-03
 1.123126131E-04 2.454502042E-03 2.454413101E-03 2.454323694E-03
 1.158271916E-04 2.479281509E-03 2.479186514E-03 2.479091054E-03
 1.194495271E-04 2.502231859E-03 2.502130577E-03 2.502028830E-03
 1.231829810E-04 2.523493953E-03 2.523386152E-03 2.523277886E-03
 1.270310458E-04 2.543200972E-03 2.543086186E-03 2.542971168E-03
 1.309972722E-04 2.561478177E-03 2.561356407E-03 2.561234171E-03
 1.350853854E-04 2.578442683E-03 2.578313695E-03 2.578184009E-03
 1.392991544E-04 2.594203223E-03 2.594066784E-03 2.593929647E-03
 1.436425227E-04 2.608860843E-03 2.608716721E-03 2.608571900E-03
 1.481195213E-04 2.622507978E-03 2.622355940E-03 2.622203203E-03
 1.527343265E-04 2.635230310E-03 2.635069890E-03 2.634909004E-03
 1.574912167E-04 2.647105372E-03 2.646936569E-03 2.646767069E-03
 1.623946155E-04 2.658204408E-03 2.658027224E-03 2.657848876E-03
 1.674490923E-04 2.668592846E-03 2.668406349E-03 2.668219386E-03
 1.726593473E-04 2.678328892E-03 2.678133547E-03 2.677937271E-03
 1.780302409E-04 2.687466796E-03 2.687261906E-03 2.687056316E-03
 1.835667499E-04 2.696054755E-03 2.695840318E-03 2.695624949E-03
 1.892740256E-04 2.704136772E-03 2.703912556E-03 2.703687176E-03
 1.951573940E-04 2.711752895E-03 2.711518202E-03 2.711282810E-03
 2.012223267E-04 2.718938747E-03 2.718693810E-03 2.718447708E-03
 2.074744407E-04 2.725726925E-03 2.725471277E-03 2.725214232E-03
 2.139195858E-04 2.732146997E-03 2.731880173E-03 2.731612185E-03
 2.205637284E-04 2.738225041E-03 2.737946808E-03 2.737667412E-03
 2.274130820E-04 2.743985271E-03 2.743695397E-03 2.743404126E-03
 2.344739914E-04 2.749449108E-03 2.749147126E-03 2.748843981E-03
 2.417530341E-04 2.754636109E-03 2.754321788E-03 2.754006069E-03
 2.492569620E-04 2.759563969E-03 2.759236842E-03 2.758908318E-03
 2.569928183E-04 2.764248056E-03 2.763907891E-03 2.763566328E-03
 2.649677335E-04 2.768703504E-03 2.768349601E-03 2.767994301E-03
 2.731891291E-04 2.772942418E-03 2.772574779E-03 2.772205509E-03
 2.816647175E-04 2.776977140E-03 2.776595065E-03 2.776211360E-03
 2.904023277E-04 2.780817915E-03 2.780420939E-03 2.780022332E-03
 2.994100796E-04 2.784474054E-03 2.784061944E-03 2.783647971E-03
 3.086963843E-04 2.787954872E-03 2.787526930E-03 2.787097124E-03
 3.182698856E-04 2.791267587E-03 2.790823579E-03 2.790377242E-03
 3.281394893E-04 2.794419648E-03 2.793958643E-03 2.793495543E-03
 3.383143339E-04 2.797417343E-03 2.796938876E-03 2.796458313E-03
 3.488039365E-04 2.800266026E-03 2.799769863E-03 2.799271373E-03
 3.596180177E-04 2.802971518E-03 2.802456729E-03 2.801939845E-03
 3.707666765E-04 2.805538010E-03 2.805004362E-03 2.804468153E-03
 3.822602448E-04 2.807970159E-03 2.807416953E-03 2.806860721E-03
 3.941094328E-04 2.810271690E-03 2.809697995E-03 2.809121273E-03
 4.063252709E-04 2.812445862E-03 2.811851213E-03 2.811253304E-03
 4.189191386E-04 2.814495936E-03 2.813879400E-03 2.813259838E-03
 4.319027066E-04 2.816424705E-03 2.815785585E-03 2.815143438E-03
 4.452880821E-04 2.818234265E-03 2.817572095E-03 2.816906432E-03
 4.590877215E-04 2.819927176E-03 2.819241025E-03 2.818551147E-03
 4.733144306E-04 2.821505303E-03 2.820794238E-03 2.820079215E-03
 4.879814805E-04 2.822970040E-03 2.822233131E-03 2.821492497E-03
 5.031024921E-04 2.824322786E-03 2.823559567E-03 2.822791925E-03
 5.186916096E-04 2.825564938E-03 2.824774245E-03 2.823979128E-03
 5.347632105E-04 2.826697426E-03 2.825878095E-03 2.825054573E-03
 5.513323122E-04 2.827720949E-03 2.826872282E-03 2.826019190E-03
 5.684143398E-04 2.828635974E-03 2.827757038E-03 2.826873213E-03
 5.860251840E-04 2.829443198E-03 2.828532597E-03 2.827617107E-03
 6.041811430E-04 2.830142388E-03 2.829199424E-03 2.828251105E-03
 6.228992715E-04 2.830733778E-03 2.829757053E-03 2.828774974E-03
 6.421967992E-04 2.831217134E-03 2.830205718E-03 2.829188481E-03
 6.620918284E-04 2.831591992E-03 2.830544487E-03 2.829491161E-03
 6.826028111E-04 2.831858117E-03 2.830773359E-03 2.829682315E-03
 7.037487812E-04 2.832014579E-03 2.830890939E-03 2.829761244E-03
 7.255495293E-04 2.832060214E-03 2.830896759E-03 2.829726785E-03
 7.480251952E-04 2.831994090E-03 2.830789424E-03 2.829578007E-03
 7.711967919E-04 2.831815043E-03 2.830567770E-03 2.829313045E-03
 7.950857980E-04 2.831521677E-03 2.830230165E-03 2.828930737E-03
 8.197145071E-04 2.831112128E-03 2.829774749E-03 2.828429220E-03
 8.451058529E-04 2.830584301E-03 2.829199657E-03 2.827806631E-03
 8.712833514E-04 2.829936566E-03 2.828502795E-03 2.827060409E-03
 8.982714498E-04 2.829166129E-03 2.827681834E-03 2.826188225E-03
 9.260951774E-04 2.828270895E-03 2.826733980E-03 2.825187752E-03
 9.547804948E-04 2.827247838E-03 2.825656906E-03 2.824055729E-03
 9.843540611E-04 2.826094162E-03 2.824446885E-03 2.822789364E-03
 1.014843350E-03 2.824806375E-03 2.823101124E-03 2.821385162E-03
 1.046276768E-03 2.823381452E-03 2.821615897E-03 2.819839399E-03
 1.078683534E-03 2.821814967E-03 2.819987480E-03 2.818148350E-03
 1.112093800E-03 2.820103429E-03 2.818211680E-03 2.816307591E-03
 1.146538649E-03 2.818242181E-03 2.816283843E-03 2.814312931E-03
 1.182050211E-03 2.816226566E-03 2.814199543E-03 2.812159481E-03
 1.218661433E-03 2.814051928E-03 2.811953891E-03 2.809842117E-03
 1.256406307E-03 2.811712679E-03 2.809541300E-03 2.807355253E-03
 1.295320108E-03 2.809203463E-03 2.806955948E-03 2.804693533E-03
 1.335438923E-03 2.806517761E-03 2.804192016E-03 2.801850438E-03
 1.376800123E-03 2.803649521E-03 2.801242750E-03 2.798819216E-03
 1.419442124E-03 2.800592221E-03 2.798101399E-03 2.795593347E-03
 1.463404740E-03 2.797338180E-03 2.794760745E-03 2.792165382E-03
 1.508728717E-03 2.793879714E-03 2.791212872E-03 2.788527403E-03
 1.555456314E-03 2.790208673E-03 2.787449630E-03 2.784670796E-03
 1.603630953E-03 2.786316676E-03 2.783462172E-03 2.780587412E-03
 1.653297455E-03 2.782194410E-03 2.779241651E-03 2.776267473E-03
 1.704502036E-03 2.777832327E-03 2.774777822E-03 2.771701198E-03
 1.757292310E-03 2.773219720E-03 2.770060441E-03 2.766878111E-03
 1.811717520E-03 2.768346108E-03 2.765078796E-03 2.761787269E-03
 1.867828076E-03 2.763199853E-03 2.759821014E-03 2.756417030E-03
 1.925676246E-03 2.757768612E-03 2.754274756E-03 2.750755055E-03
 1.985315932E-03 2.752039814E-03 2.748427447E-03 2.744788071E-03
 2.046802780E-03 2.745999489E-03 2.742265118E-03 2.738502808E-03
 2.110193484E-03 2.739633434E-03 2.735773567E-03 2.731884364E-03
 2.175547648E-03 2.732926281E-03 2.728937194E-03 2.724917373E-03
 2.242925344E-03 2.725862199E-03 2.721739933E-03 2.717585769E-03
 2.312389901E-03 2.718423726E-03 2.714164788E-03 2.709872788E-03
 2.384005813E-03 2.710593631E-03 2.706194064E-03 2.701759804E-03
 2.457839437E-03 2.702352358E-03 2.697808435E-03 2.693228424E-03
 2.533959458E-03 2.693680581E-03 2.688988112E-03 2.684258157E-03
 2.612437122E-03 2.684556646E-03 2.679711906E-03 2.674828283E-03
 2.693345072E-03 2.674958669E-03 2.669957466E-03 2.664916217E-03
 2.776758745E-03 2.664862899E-03 2.659701975E-03 2.654498676E-03
 2.862755442E-03 2.654244890E-03 2.648920054E-03 2.643551212E-03
 2.951415488E-03 2.643078566E-03 2.637585858E-03 2.632047748E-03
 3.042821307E-03 2.631336683E-03 2.625672380E-03 2.619960811E-03
 3.137057880E-03 2.618989907E-03 2.613150282E-03 2.607261529E-03
 3.234212985E-03 2.606007969E-03 2.599989530E-03 2.593919868E-03
 3.334376728E-03 2.592359204E-03 2.586158225E-03 2.579904161E-03
 3.437642707E-03 2.578009386E-03 2.571622608E-03 2.565180650E-03
 3.544106614E-03 2.562923590E-03 2.556347754E-03 2.549714409E-03
 3.653867636E-03 2.547064330E-03 2.540296176E-03 2.533468651E-03
 3.767027752E-03 2.530392492E-03 2.523429226E-03 2.516404493E-03
 3.883692669E-03 2.512866631E-03 2.505705925E-03 2.498481423E-03
 4.003970418E-03 2.494444139E-03 2.487083664E-03 2.479656832E-03
 4.127973225E-03 2.475079615E-03 2.467517275E-03 2.459886251E-03
 4.255816340E-03 2.454725560E-03 2.446959727E-03 2.439122880E-03
 4.387618508E-03 2.433332149E-03 2.425361890E-03 2.417318057E-03
 4.523502663E-03 2.410847694E-03 2.402672311E-03 2.394420793E-03
 4.663594998E-03 2.387218177E-03 2.378837438E-03 2.370377770E-03
 4.808025900E-03 2.362386324E-03 2.353800694E-03 2.345133806E-03
 4.956929944E-03 2.336293226E-03 2.327504335E-03 2.318630926E-03
 5.110444967E-03 2.308877883E-03 2.299887128E-03 2.290809527E-03
 5.268714856E-03 2.280076034E-03 2.270886442E-03 2.261607209E-03
 5.431886297E-03 2.249821322E-03 2.240436617E-03 2.230959479E-03
 5.600110628E-03 2.218045760E-03 2.208470600E-03 2.198800212E-03
 5.773545243E-03 2.184678335E-03 2.174918540E-03 2.165060956E-03
 5.952350795E-03 2.149646403E-03 2.139709191E-03 2.129671164E-03
 6.136693992E-03 2.112875227E-03 2.102769213E-03 2.092559356E-03
 6.326746196E-03 2.074289136E-03 2.064023633E-03 2.053652192E-03
 6.522683892E-03 2.033810830E-03 2.023397712E-03 2.012875862E-03
 6.724690087E-03 1.991361845E-03 1.980814384E-03 1.970155630E-03
 6.932952441E-03 1.946864533E-03 1.936197630E-03 1.925416989E-03
 7.147664204E-03 1.900241128E-03 1.889471896E-03 1.878586831E-03
 7.369025610E-03 1.851415145E-03 1.840563025E-03 1.829592744E-03
 7.597242948E-03 1.800312777E-03 1.789399190E-03 1.778365695E-03
 7.832527161E-03 1.746864291E-03 1.735913334E-03 1.724840724E-03
 8.075099438E-03 1.691004029E-03 1.680042362E-03 1.668957528E-03
 8.325182833E-03 1.632674946E-03 1.621731906E-03 1.610664651E-03
 8.583012037E-03 1.571828150E-03 1.560936100E-03 1.549918903E-03
 8.848825470E-03 1.508427667E-03 1.497621648E-03 1.486690366E-03
 9.122870862E-03 1.442452543E-03 1.431770972E-03 1.420964254E-03
 9.405404329E-03 1.373900799E-03 1.363385003E-03 1.352744526E-03
 9.696686640E-03 1.302795252E-03 1.292489585E-03 1.282060402E-03
 9.996990673E-03 1.229187241E-03 1.219139085E-03 1.208969043E-03
 1.030659489E-02 1.153165009E-03 1.143424306E-03 1.133564278E-03
 1.062578708E-02 1.074860920E-03 1.065480406E-03 1.055983594E-03
 1.095486525E-02 9.944603080E-04 9.854944656E-04 9.764162241E-04
 1.129413396E-02 9.122141637E-04 9.037189884E-04 8.951161290E-04
 1.164390985E-02 8.284507785E-04 8.204826736E-04 8.124124724E-04
 1.200451888E-02 7.435919833E-04 7.362065953E-04 7.287257467E-04
 1.237629540E-02 6.581718917E-04 6.514227716E-04 6.445855834E-04
 1.275958586E-02 5.728569813E-04 5.667933729E-04 5.606499035E-04
 1.315474603E-02 4.884704249E-04 4.831347615E-04 4.777282302E-04
 1.356214564E-02 4.060172068E-04 4.014419392E-04 3.968054662E-04
 1.398216095E-02 3.267131106E-04 3.229168069E-04 3.190693387E-04
 1.441518404E-02 2.520076814E-04 2.489902254E-04 2.459317620E-04
 1.486161817E-02 1.836014999E-04 1.813385898E-04 1.790444803E-04
 1.532187872E-02 1.234384545E-04 1.218754987E-04 1.202901767E-04
 1.579639316E-02 7.364245539E-05 7.268854824E-05 7.171929610E-05
 1.628560200E-02 3.631885920E-05 3.584300430E-05 3.535655924E-05
 1.678996161E-02 1.296267965E-05 1.279754269E-05 1.262454953E-05
 1.730994321E-02 2.602280347E-06 2.574444807E-06 2.542124548E-06
 1.784602553E-02 1.561416383E-07 1.561881930E-07 1.552282356E-07
 1.839871332E-02 8.417733177E-10 1.072722133E-09 1.267210115E-09
 1.896851510E-02 1.794372151E-10 3.066004672E-10 4.260878594E-10
 1.955596358E-02 1.371837643E-10 2.560872070E-10 3.695124207E-10
 2.016160637E-02 1.368140462E-10 2.552560385E-10 3.685269034E-10
 2.078600600E-02 1.373278297E-10 2.561418300E-10 3.698481799E-10
 2.142974176E-02 1.378815950E-10 2.570997859E-10 3.712469776E-10
 2.209341526E-02 1.383999859E-10 2.580199387E-10 3.725874331E-10
 2.277764119E-02 1.389039717E-10 2.589019277E-10 3.738697130E-10
 2.348305658E-02 1.393763299E-10 2.597335125E-10 3.750791344E-10
 2.421032079E-02 1.398253596E-10 2.605222149E-10 3.762264111E-10
 2.496010624E-02 1.402488126E-10 2.612671746E-10 3.773103496E-10
 2.573311329E-02 1.406488537E-10 2.619712502E-10 3.783350300E-10
 2.653006092E-02 1.410258438E-10 2.626356632E-10 3.793022008E-10
 2.735168859E-02 1.413808237E-10 2.632621621E-10 3.802143878E-10
 2.819876187E-02 1.417145568E-10 2.638522734E-10 3.810737281E-10
 2.907206863E-02 1.420279033E-10 2.644075792E-10 3.818824701E-10
 2.997242101E-02 1.423216545E-10 2.649294950E-10 3.826427508E-10
 3.090065904E-02 1.425966706E-10 2.654195752E-10 3.833566797E-10
 3.185764328E-02 1.428537150E-10 2.658792353E-10 3.840263385E-10
 3.284426406E-02 1.430936480E-10 2.663099186E-10 3.846538088E-10
 3.386143968E-02 1.433172608E-10 2.667130961E-10 3.852411723E-10
 3.491012007E-02 1.435253860E-10 2.670901278E-10 3.857904274E-10
 3.599127382E-02 1.437188146E-10 2.674424571E-10 3.863036835E-10
 3.710591421E-02 1.438983932E-10 2.677714994E-10 3.867829668E-10
 3.825507313E-02 1.440649267E-10 2.680786149E-10 3.872302756E-10
 3.943981975E-02 1.442192338E-10 2.683652189E-10 3.876476085E-10
 4.066125676E-02 1.443621056E-10 2.686326162E-10 3.880370192E-10
 4.192052409E-02 1.444943470E-10 2.688822220E-10 3.884004229E-10
 4.321879148E-02 1.446167491E-10 2.691153411E-10 3.887398459E-10
 4.455726221E-02 1.447300751E-10 2.693332501E-10 3.890571754E-10
 4.593718797E-02 1.448351022E-10 2.695372536E-10 3.893542988E-10
 4.735985026E-02 1.449325243E-10 2.697285451E-10 3.896330203E-10
 4.882656783E-02 1.450230630E-10 2.699083457E-10 3.898951717E-10
 5.033871159E-02 1.451074122E-10 2.700778212E-10 3.901424184E-10
 5.189768597E-02 1.451861964E-10 2.702380264E-10 3.903763979E-10
 5.350494012E-02 1.452600124E-10 2.703900159E-10 3.905986923E-10
 5.516197160E-02 1.453294568E-10 2.705347335E-10 3.908107449E-10
 5.687032267E-02 1.453950432E-10 2.706731506E-10 3.910139712E-10
 5.863158032E-02 1.454572712E-10 2.708060720E-10 3.912096203E-10
 6.044737995E-02 1.455166126E-10 2.709343305E-10 3.913989133E-10
 6.231941655E-02 1.455734422E-10 2.710586200E-10 3.915829050E-10
 6.424943358E-02 1.456281762E-10 2.711796065E-10 3.917625946E-10
 6.623921543E-02 1.456810922E-10 2.712978175E-10 3.919388702E-10
 6.829062104E-02 1.457324955E-10 2.714138359E-10 3.921124536E-10
 7.040556520E-02 1.457826498E-10 2.715280500E-10 3.922840386E-10
 7.258599997E-02 1.458317217E-10 2.716408765E-10 3.924541525E-10
 7.483396679E-02 1.458798915E-10 2.717525649E-10 3.926233227E-10
 7.715155184E-02 1.459272980E-10 2.718634207E-10 3.927918824E-10
 7.954090834E-02 1.459740384E-10 2.719736381E-10 3.929601089E-10
 8.200427145E-02 1.460202098E-10 2.720833558E-10 3.931282799E-10
 8.454391360E-02 1.460658122E-10 2.721926573E-10 3.932964510E-10
 8.716221154E-02 1.461109150E-10 2.723016257E-10 3.934647608E-10
 8.986160159E-02 1.461554766E-10 2.724102888E-10 3.936332094E-10
 9.264458716E-02 1.461995108E-10 2.725185910E-10 3.938017412E-10
 9.551376104E-02 1.462429761E-10 2.726265047E-10 3.939703008E-10
 9.847179055E-02 1.462858168E-10 2.727339465E-10 3.941387217E-10
 1.015214324E-01 1.463279775E-10 2.728408333E-10 3.943068927E-10
 1.046655178E-01 1.463693750E-10 2.729470261E-10 3.944745919E-10
 1.079069749E-01 1.464099258E-10 2.730523863E-10 3.946415694E-10
 1.112488210E-01 1.464495608E-10 2.731567472E-10 3.948076033E-10
 1.146941632E-01 1.464881411E-10 2.732599147E-10 3.949723881E-10
 1.182462052E-01 1.465255556E-10 2.733616944E-10 3.951356464E-10
 1.219082549E-01 1.465617072E-10 2.734618365E-10 3.952970173E-10
 1.256837100E-01 1.465964433E-10 2.735601190E-10 3.954561123E-10
 1.295761019E-01 1.466296251E-10 2.736562921E-10 3.956125982E-10
 1.335890293E-01 1.466610999E-10 2.737500504E-10 3.957660033E-10
 1.377262473E-01 1.466907013E-10 2.738410609E-10 3.959158834E-10
 1.419915855E-01 1.467182487E-10 2.739290184E-10 3.960617667E-10
 1.463890225E-01 1.467435479E-10 2.740135618E-10 3.962031259E-10
 1.509226412E-01 1.467664046E-10 2.740943028E-10 3.963393780E-10
 1.555966735E-01 1.467865968E-10 2.741708249E-10 3.964699125E-10
 1.604154557E-01 1.468039024E-10 2.742426841E-10 3.965941187E-10
 1.653834581E-01 1.468180438E-10 2.743094363E-10 3.967112472E-10
 1.705053449E-01 1.468287714E-10 2.743704985E-10 3.968206042E-10
 1.757858396E-01 1.468358074E-10 2.744253991E-10 3.969213569E-10
 1.812298745E-01 1.468388466E-10 2.744735272E-10 3.970127005E-10
 1.868425012E-01 1.468375838E-10 2.745142724E-10 3.970936913E-10
 1.926289499E-01 1.468316718E-10 2.745469685E-10 3.971634133E-10
 1.985946149E-01 1.468207361E-10 2.745709493E-10 3.972208118E-10
 2.047450244E-01 1.468044436E-10 2.745854655E-10 3.972648321E-10
 2.110859156E-01 1.467823640E-10 2.745897398E-10 3.972943363E-10
 2.176231891E-01 1.467541227E-10 2.745829952E-10 3.973081308E-10
 2.243629098E-01 1.467192479E-10 2.745643435E-10 3.973049389E-10
 2.313113511E-01 1.466773369E-10 2.745328964E-10 3.972834561E-10
 2.384749949E-01 1.466278904E-10 2.744877103E-10 3.972423224E-10
 2.458604872E-01 1.465704363E-10 2.744278416E-10 3.971800389E-10
 2.534747124E-01 1.465044752E-10 2.743522909E-10 3.970951623E-10
 2.613247335E-01 1.464295074E-10 2.742599758E-10 3.969860829E-10
 2.694178820E-01 1.463449639E-10 2.741498140E-10 3.968511908E-10
 2.777616680E-01 1.462503313E-10 2.740206673E-10 3.966888207E-10
 2.863638699E-01 1.461450405E-10 2.738713978E-10 3.964972239E-10
 2.952324748E-01 1.460285504E-10 2.737008675E-10 3.962746520E-10
 3.043757379E-01 1.459002918E-10 2.735078275E-10 3.960193562E-10
 3.138021529E-01 1.457596960E-10 2.732911675E-10 3.957295047E-10
 3.235205114E-01 1.456062076E-10 2.730496107E-10 3.954032379E-10
 3.335398436E-01 1.454392856E-10 2.727819637E-10 3.950387795E-10
 3.438694775E-01 1.452583887E-10 2.724870329E-10 3.946342697E-10
 3.545189798E-01 1.450629894E-10 2.721636805E-10 3.941879601E-10
 3.654983342E-01 1.448526021E-10 2.718107406E-10 3.936980464E-10
 3.768177032E-01 1.446267689E-10 2.714271585E-10 3.931628911E-10
 3.884876370E-01 1.443850872E-10 2.710119074E-10 3.925808845E-10
 4.005189836E-01 1.441271824E-10 2.705640711E-10 3.919505553E-10
 4.129229188E-01 1.438527769E-10 2.700827895E-10 3.912705715E-10
 4.257110059E-01 1.435616348E-10 2.695673684E-10 3.905397672E-10
 4.388951659E-01 1.432536173E-10 2.690172807E-10 3.897571987E-10
 4.524875879E-01 1.429287383E-10 2.684321654E-10 3.889221722E-10
 4.665009975E-01 1.425870810E-10 2.678118283E-10 3.880342436E-10
 4.809483886E-01 1.422288676E-10 2.671563804E-10 3.870933851E-10
 4.958432019E-01 1.418545420E-10 2.664661547E-10 3.860998743E-10
 5.111992955E-01 1.414646594E-10 2.657418174E-10 3.850544883E-10
 5.270310044E-01 1.410600248E-10 2.649843955E-10 3.839584484E-10
 5.433530211E-01 1.406416650E-10 2.641953600E-10 3.828135864E-10
 5.601804852E-01 1.402108984E-10 2.633765428E-10 3.816223448E-10
 5.775290728E-01 1.397693072E-10 2.625303308E-10 3.803878323E-10
 5.954149961E-01 1.393187926E-10 2.616596384E-10 3.791139347E-10
 6.138547659E-01 1.388616305E-10 2.607679905E-10 3.778053981E-10
 6.328656673E-01 1.384004994E-10 2.598595783E-10 3.764678569E-10
 6.524653435E-01 1.379385217E-10 2.589393422E-10 3.751080002E-10
 6.726719737E-01 1.374792641E-10 2.580129166E-10 3.737334331E-10
 6.935044527E-01 1.370268343E-10 2.570868796E-10 3.723533426E-10
 7.149820328E-01 1.365860203E-10 2.561688084E-10 3.709771101E-10
 7.371248007E-01 1.361619706E-10 2.552670020E-10 3.696184747E-10
 7.599533200E-01 1.357615548E-10 2.543919242E-10 3.682849858E-10
 7.834888697E-01 1.353901019E-10 2.535525956E-10 3.670060089E-10
 8.077532649E-01 1.350640294E-10 2.527706655E-10 3.657642522E-10
 8.327691555E-01 1.347698481E-10 2.520352815E-10 3.646645763E-10
 8.585597277E-01 1.345808881E-10 2.514320419E-10 3.635073909E-10
 8.851490617E-01 1.343539169E-10 2.508074859E-10 3.628765899E-10
 9.125618339E-01 1.354583945E-10 2.515838371E-10 3.622015188E-10
 9.408236146E-01 1.356758456E-10 2.514315145E-10 3.637457280E-10
 9.699606299E-01 1.251420495E-10 2.408712396E-10 3.433928975E-10
 1.000000000E+00 0.000000000E+00 0.000000000E+00 0.000000000E+00
ZONE T="CFL3D, SA-QCR2000"
 4.999999987E-07 5.199020728E-11 4.064910214E-11 2.930800047E-11
 1.000465204E-06 4.484846661E-10 3.506525625E-10 2.528204313E-10
 1.501861107E-06 1.928244675E-09 1.507618697E-09 1.086992718E-09
 2.004654107E-06 5.735574682E-09 4.484420391E-09 3.233265877E-09
 2.509312253E-06 1.364458058E-08 1.066816058E-08 7.691739690E-09
 3.016304618E-06 2.799180976E-08 2.188569326E-08 1.577957676E-08
 3.526103228E-06 5.171906992E-08 4.043709723E-08 2.915512809E-08
 4.039182386E-06 8.842695109E-08 6.913754191E-08 4.984812918E-08
 4.556018666E-06 1.424398590E-07 1.113680881E-07 8.029632426E-08
 5.077094102E-06 2.188837414E-07 1.711365343E-07 1.233893272E-07
 5.602892543E-06 3.237766748E-07 2.531481584E-07 1.825196136E-07
 6.133903298E-06 4.641348994E-07 3.628886702E-07 2.616424410E-07
 6.670620678E-06 6.480951811E-07 5.067198572E-07 3.653445901E-07
 7.213543540E-06 8.850539075E-07 6.919884186E-07 4.989229865E-07
 7.763177564E-06 1.185827500E-06 9.271512909E-07 6.684751384E-07
 8.320033885E-06 1.562832949E-06 1.221916705E-06 8.810006307E-07
 8.884630006E-06 2.030292535E-06 1.587404768E-06 1.144517000E-06
 9.457491615E-06 2.604467227E-06 2.036328851E-06 1.468190476E-06
 1.003915168E-05 3.303914355E-06 2.583198466E-06 1.862482577E-06
 1.063015134E-05 4.149781034E-06 3.244547770E-06 2.339314278E-06
 1.123103993E-05 5.166129995E-06 4.039189662E-06 2.912249556E-06
 1.184237772E-05 6.380307696E-06 4.988506134E-06 3.596705028E-06
 1.246473221E-05 7.823341548E-06 6.116756140E-06 4.410170732E-06
 1.309868276E-05 9.530394891E-06 7.451432339E-06 5.372469332E-06
 1.374481872E-05 1.154125766E-05 9.023643543E-06 6.506030331E-06
 1.440374217E-05 1.390089528E-05 1.086854900E-05 7.836202712E-06
 1.507606521E-05 1.666003118E-05 1.302580495E-05 9.391578715E-06
 1.576241448E-05 1.987581163E-05 1.554009214E-05 1.120437355E-05
 1.646342571E-05 2.361246516E-05 1.846162922E-05 1.331079420E-05
 1.717975465E-05 2.794209831E-05 2.184679215E-05 1.575148599E-05
 1.791206523E-05 3.294542694E-05 2.575869075E-05 1.857195457E-05
 1.866104139E-05 3.871267108E-05 3.026785998E-05 2.182305070E-05
 1.942737617E-05 4.534428808E-05 3.545284926E-05 2.556141044E-05
 2.021178625E-05 5.295198207E-05 4.140099190E-05 2.984999992E-05
 2.101499740E-05 6.165940431E-05 4.820896356E-05 3.475852645E-05
 2.183776087E-05 7.160307723E-05 5.598350617E-05 4.036394239E-05
 2.268083881E-05 8.293295105E-05 6.484187179E-05 4.675078526E-05
 2.354501703E-05 9.581319318E-05 7.491239376E-05 5.401159433E-05
 2.443110134E-05 1.104224721E-04 8.633478137E-05 6.224708341E-05
 2.533991210E-05 1.269539789E-04 9.926007624E-05 7.156616630E-05
 2.627229696E-05 1.456154714E-04 1.138507068E-04 8.208594954E-05
 2.722912359E-05 1.666283933E-04 1.302798337E-04 9.393126675E-05
 2.821128328E-05 1.902268414E-04 1.487304689E-04 1.072340892E-04
 2.921968553E-05 2.166554186E-04 1.693938393E-04 1.221322746E-04
 3.025527258E-05 2.461668919E-04 1.924676035E-04 1.387683296E-04
 3.131900667E-05 2.790183935E-04 2.181528107E-04 1.572872134E-04
 3.241187733E-05 3.154669248E-04 2.466503356E-04 1.778337755E-04
 3.353489956E-05 3.557633900E-04 2.781564253E-04 2.005494607E-04
 3.468912109E-05 4.001463240E-04 3.128575336E-04 2.255687286E-04
 3.587561514E-05 4.488334525E-04 3.509238886E-04 2.530143247E-04
 3.709548400E-05 5.020130775E-04 3.925027268E-04 2.829923469E-04
 3.834985910E-05 5.598342395E-04 4.377105797E-04 3.155868908E-04
 3.963991549E-05 6.223974051E-04 4.866259405E-04 3.508544760E-04
 4.096685007E-05 6.897432031E-04 5.392806488E-04 3.888180654E-04
 4.233189611E-05 7.618437521E-04 5.956528476E-04 4.294619139E-04
 4.373632328E-05 8.385940455E-04 6.556604640E-04 4.727268533E-04
 4.518143760E-05 9.198062471E-04 7.191565819E-04 5.185069167E-04
 4.666858513E-05 1.005205326E-03 7.859261823E-04 5.666470970E-04
 4.819914830E-05 1.094428822E-03 8.556859102E-04 6.169429980E-04
 4.977455319E-05 1.187030226E-03 9.280866943E-04 6.691431045E-04
 5.139626228E-05 1.282486250E-03 1.002719277E-03 7.229521289E-04
 5.306578896E-05 1.380207599E-03 1.079122885E-03 7.780380547E-04
 5.478467938E-05 1.479553292E-03 1.156796468E-03 8.340395289E-04
 5.655453788E-05 1.579848584E-03 1.235212316E-03 8.905760478E-04
 5.837701246E-05 1.680403017E-03 1.313830726E-03 9.472584352E-04
 6.025379116E-05 1.780530205E-03 1.392115024E-03 1.003699726E-03
 6.218662747E-05 1.879567862E-03 1.469547278E-03 1.059526694E-03
 6.417731493E-05 1.976893982E-03 1.545641338E-03 1.114388579E-03
 6.622770888E-05 2.071942436E-03 1.619954244E-03 1.167966169E-03
 6.833971565E-05 2.164214151E-03 1.692096237E-03 1.219978207E-03
 7.051529974E-05 2.253285842E-03 1.761735883E-03 1.270186040E-03
 7.275648386E-05 2.338813152E-03 1.828604261E-03 1.318395487E-03
 7.506535621E-05 2.420532517E-03 1.892495318E-03 1.364458119E-03
 7.744405593E-05 2.498258138E-03 1.953263534E-03 1.408268930E-03
 7.989480946E-05 2.571877791E-03 2.010821365E-03 1.449764823E-03
 8.241988689E-05 2.641345374E-03 2.065132605E-03 1.488919836E-03