TITLE     = "tecplot geometry and solution file"
VARIABLES = "x"
"y"
"z"
"rho"
"u"
"v"
"w"
"uwprime"
ZONE T="x = 200"
 STRANDID=0, SOLUTIONTIME=0
 I=735, J=1, K=1, ZONETYPE=Ordered
 DATAPACKING=POINT
 DT=(SINGLE SINGLE SINGLE SINGLE SINGLE SINGLE SINGLE SINGLE )
 2.000005798E+02 0.000000000E+00 -1.466365967E+02 1.000021577E+00 6.504070759E-02 0.000000000E+00 1.347989601E-04 5.036479480E-12
 2.000005798E+02 0.000000000E+00 -1.437562866E+02 1.000021577E+00 6.504064053E-02 0.000000000E+00 1.341114112E-04 -3.570980534E-12
 2.000005798E+02 0.000000000E+00 -1.409408569E+02 1.000021577E+00 6.504079700E-02 0.000000000E+00 1.334351546E-04 -2.949998915E-13
 2.000005798E+02 0.000000000E+00 -1.381888275E+02 1.000021577E+00 6.504094601E-02 0.000000000E+00 1.327741338E-04 2.907209412E-12
 2.000005798E+02 0.000000000E+00 -1.354987183E+02 1.000021577E+00 6.504087150E-02 0.000000000E+00 1.321204618E-04 2.427060289E-11
 2.000005798E+02 0.000000000E+00 -1.328691101E+02 1.000021577E+00 6.504079700E-02 0.000000000E+00 1.314815017E-04 4.515353022E-11
 2.000005798E+02 0.000000000E+00 -1.302985992E+02 1.000021696E+00 6.504064053E-02 0.000000000E+00 1.308452192E-04 5.360455482E-11
 2.000005798E+02 0.000000000E+00 -1.277858353E+02 1.000021696E+00 6.504048407E-02 0.000000000E+00 1.302232267E-04 6.186572782E-11
 2.000005798E+02 0.000000000E+00 -1.253294830E+02 1.000021696E+00 6.504032761E-02 0.000000000E+00 1.296026167E-04 6.364542227E-11
 2.000005798E+02 0.000000000E+00 -1.229282455E+02 1.000021696E+00 6.504017115E-02 0.000000000E+00 1.289959182E-04 6.538519032E-11
 2.000005798E+02 0.000000000E+00 -1.205808334E+02 1.000021696E+00 6.504003704E-02 0.000000000E+00 1.283889724E-04 6.604206071E-11
 2.000005798E+02 0.000000000E+00 -1.182860260E+02 1.000021696E+00 6.503990293E-02 0.000000000E+00 1.277956326E-04 6.668420677E-11
 2.000005798E+02 0.000000000E+00 -1.160426025E+02 1.000021696E+00 6.503977627E-02 0.000000000E+00 1.272009104E-04 6.825590093E-11
 2.000005798E+02 0.000000000E+00 -1.138493729E+02 1.000021696E+00 6.503965706E-02 0.000000000E+00 1.266194886E-04 6.979242878E-11
 2.000005798E+02 0.000000000E+00 -1.117051849E+02 1.000021696E+00 6.503953040E-02 0.000000000E+00 1.260359422E-04 7.236746619E-11
 2.000005798E+02 0.000000000E+00 -1.096089096E+02 1.000021696E+00 6.503941119E-02 0.000000000E+00 1.254654489E-04 7.488496628E-11
 2.000005798E+02 0.000000000E+00 -1.075594330E+02 1.000021696E+00 6.503928453E-02 0.000000000E+00 1.248924527E-04 7.791491063E-11
 2.000005798E+02 0.000000000E+00 -1.055556870E+02 1.000021696E+00 6.503915787E-02 0.000000000E+00 1.243322477E-04 8.087724240E-11
 2.000005798E+02 0.000000000E+00 -1.035966110E+02 1.000021696E+00 6.503902376E-02 0.000000000E+00 1.237694960E-04 8.376287858E-11
 2.000005798E+02 0.000000000E+00 -1.016811752E+02 1.000021696E+00 6.503888965E-02 0.000000000E+00 1.232192881E-04 8.658423978E-11
 2.000005798E+02 0.000000000E+00 -9.980837250E+01 1.000021696E+00 6.503874809E-02 0.000000000E+00 1.226666791E-04 8.892902387E-11
 2.000005798E+02 0.000000000E+00 -9.797721863E+01 1.000021696E+00 6.503861398E-02 0.000000000E+00 1.221263665E-04 9.122166217E-11
 2.000005798E+02 0.000000000E+00 -9.618675995E+01 1.000021815E+00 6.503847241E-02 0.000000000E+00 1.215839875E-04 9.288460973E-11
 2.000005798E+02 0.000000000E+00 -9.443605042E+01 1.000021815E+00 6.503833085E-02 0.000000000E+00 1.210536502E-04 9.451064237E-11
 2.000005798E+02 0.000000000E+00 -9.272417450E+01 1.000021815E+00 6.503818929E-02 0.000000000E+00 1.205216613E-04 9.554249752E-11
 2.000005798E+02 0.000000000E+00 -9.105023956E+01 1.000021815E+00 6.503804773E-02 0.000000000E+00 1.200014667E-04 9.655148209E-11
 2.000005798E+02 0.000000000E+00 -8.941336823E+01 1.000021815E+00 6.503790617E-02 0.000000000E+00 1.194801225E-04 9.709237581E-11
 2.000005798E+02 0.000000000E+00 -8.781270599E+01 1.000021815E+00 6.503777206E-02 0.000000000E+00 1.189703107E-04 9.762130687E-11
 2.000005798E+02 0.000000000E+00 -8.624742126E+01 1.000021815E+00 6.503763795E-02 0.000000000E+00 1.184598732E-04 9.781757349E-11
 2.000005798E+02 0.000000000E+00 -8.471669006E+01 1.000021815E+00 6.503750384E-02 0.000000000E+00 1.179607061E-04 9.800950329E-11
 2.000005798E+02 0.000000000E+00 -8.321972656E+01 1.000021815E+00 6.503737718E-02 0.000000000E+00 1.174614517E-04 9.797139489E-11
 2.000005798E+02 0.000000000E+00 -8.175573730E+01 1.000021815E+00 6.503725052E-02 0.000000000E+00 1.169731986E-04 9.793411915E-11
 2.000005798E+02 0.000000000E+00 -8.032398224E+01 1.000021815E+00 6.503712386E-02 0.000000000E+00 1.164853893E-04 9.772908177E-11
 2.000005798E+02 0.000000000E+00 -7.892369843E+01 1.000021815E+00 6.503700465E-02 0.000000000E+00 1.160083048E-04 9.752854774E-11
 2.000005798E+02 0.000000000E+00 -7.755416870E+01 1.000021815E+00 6.503687799E-02 0.000000000E+00 1.155321734E-04 9.719344773E-11
 2.000005798E+02 0.000000000E+00 -7.621468353E+01 1.000021815E+00 6.503675878E-02 0.000000000E+00 1.150664830E-04 9.686570296E-11
 2.000005798E+02 0.000000000E+00 -7.490454865E+01 1.000021815E+00 6.503663957E-02 0.000000000E+00 1.146022332E-04 9.642305704E-11
 2.000005798E+02 0.000000000E+00 -7.362309265E+01 1.000021815E+00 6.503652781E-02 0.000000000E+00 1.141481480E-04 9.599010475E-11
 2.000005798E+02 0.000000000E+00 -7.236964417E+01 1.000021815E+00 6.503641605E-02 0.000000000E+00 1.136959472E-04 9.545987611E-11
 2.000005798E+02 0.000000000E+00 -7.114356995E+01 1.000021815E+00 6.503631175E-02 0.000000000E+00 1.132536199E-04 9.494122155E-11
 2.000005798E+02 0.000000000E+00 -6.994422150E+01 1.000021935E+00 6.503619999E-02 0.000000000E+00 1.128135846E-04 9.434589221E-11
 2.000005798E+02 0.000000000E+00 -6.877099609E+01 1.000021935E+00 6.503609568E-02 0.000000000E+00 1.123831316E-04 9.376352472E-11
 2.000005798E+02 0.000000000E+00 -6.762329102E+01 1.000021935E+00 6.503599137E-02 0.000000000E+00 1.119553417E-04 9.312800531E-11
 2.000005798E+02 0.000000000E+00 -6.650051117E+01 1.000021935E+00 6.503588706E-02 0.000000000E+00 1.115368432E-04 9.250628735E-11
 2.000005798E+02 0.000000000E+00 -6.540208435E+01 1.000021935E+00 6.503578275E-02 0.000000000E+00 1.111213205E-04 9.185523175E-11
 2.000005798E+02 0.000000000E+00 -6.432745361E+01 1.000021935E+00 6.503568590E-02 0.000000000E+00 1.107148055E-04 9.121827599E-11
 2.000005798E+02 0.000000000E+00 -6.327605820E+01 1.000021935E+00 6.503558904E-02 0.000000000E+00 1.103115501E-04 9.057303518E-11
 2.000005798E+02 0.000000000E+00 -6.224737549E+01 1.000021935E+00 6.503549218E-02 0.000000000E+00 1.099170113E-04 8.994172768E-11
 2.000005798E+02 0.000000000E+00 -6.124087143E+01 1.000021935E+00 6.503539532E-02 0.000000000E+00 1.095259722E-04 8.931846929E-11
 2.000005798E+02 0.000000000E+00 -6.025604248E+01 1.000021935E+00 6.503529847E-02 0.000000000E+00 1.091433514E-04 8.870863072E-11
 2.000005798E+02 0.000000000E+00 -5.929238510E+01 1.000021935E+00 6.503520906E-02 0.000000000E+00 1.087644341E-04 8.811806146E-11
 2.000005798E+02 0.000000000E+00 -5.834941101E+01 1.000021935E+00 6.503511965E-02 0.000000000E+00 1.083936440E-04 8.754016956E-11
 2.000005798E+02 0.000000000E+00 -5.742664337E+01 1.000021935E+00 6.503503025E-02 0.000000000E+00 1.080267248E-04 8.698885362E-11
 2.000005798E+02 0.000000000E+00 -5.652361679E+01 1.000021935E+00 6.503494084E-02 0.000000000E+00 1.076676490E-04 8.644933380E-11
 2.000005798E+02 0.000000000E+00 -5.563987350E+01 1.000021935E+00 6.503485143E-02 0.000000000E+00 1.073125677E-04 8.594241985E-11
 2.000005798E+02 0.000000000E+00 -5.477497101E+01 1.000021935E+00 6.503476202E-02 0.000000000E+00 1.069650607E-04 8.544631669E-11
 2.000005798E+02 0.000000000E+00 -5.392847824E+01 1.000021935E+00 6.503467262E-02 0.000000000E+00 1.066216355E-04 8.499122239E-11
 2.000005798E+02 0.000000000E+00 -5.309996414E+01 1.000021935E+00 6.503459066E-02 0.000000000E+00 1.062855081E-04 8.454578704E-11
 2.000005798E+02 0.000000000E+00 -5.228901672E+01 1.000021935E+00 6.503450871E-02 0.000000000E+00 1.059535352E-04 8.415650121E-11
 2.000005798E+02 0.000000000E+00 -5.149523163E+01 1.000021935E+00 6.503442675E-02 0.000000000E+00 1.056285837E-04 8.377545185E-11
 2.000005798E+02 0.000000000E+00 -5.071820831E+01 1.000021935E+00 6.503433734E-02 0.000000000E+00 1.053078304E-04 8.347714880E-11
 2.000005798E+02 0.000000000E+00 -4.995756912E+01 1.000021935E+00 6.503425539E-02 0.000000000E+00 1.049938364E-04 8.318513933E-11
 2.000005798E+02 0.000000000E+00 -4.921292877E+01 1.000021935E+00 6.503417343E-02 0.000000000E+00 1.046840553E-04 8.301876547E-11
 2.000005798E+02 0.000000000E+00 -4.848392487E+01 1.000021935E+00 6.503409892E-02 0.000000000E+00 1.043807788E-04 8.285588188E-11
 2.000005798E+02 0.000000000E+00 -4.777018738E+01 1.000021935E+00 6.503401697E-02 0.000000000E+00 1.040817078E-04 8.288233294E-11
 2.000005798E+02 0.000000000E+00 -4.707137299E+01 1.000021935E+00 6.503393501E-02 0.000000000E+00 1.037888869E-04 8.290823583E-11
 2.000005798E+02 0.000000000E+00 -4.638713455E+01 1.000021935E+00 6.503385305E-02 0.000000000E+00 1.035002570E-04 8.321195122E-11
 2.000005798E+02 0.000000000E+00 -4.571713257E+01 1.000021935E+00 6.503377855E-02 0.000000000E+00 1.032176297E-04 8.350935221E-11
 2.000005798E+02 0.000000000E+00 -4.506104660E+01 1.000021935E+00 6.503369659E-02 0.000000000E+00 1.029391497E-04 8.420093095E-11
 2.000005798E+02 0.000000000E+00 -4.441854477E+01 1.000021935E+00 6.503361464E-02 0.000000000E+00 1.026664395E-04 8.487818781E-11
 2.000005798E+02 0.000000000E+00 -4.378932571E+01 1.000021935E+00 6.503353268E-02 0.000000000E+00 1.023978257E-04 8.609582491E-11
 2.000005798E+02 0.000000000E+00 -4.317307281E+01 1.000021935E+00 6.503345817E-02 0.000000000E+00 1.021347416E-04 8.728836404E-11
 2.000005798E+02 0.000000000E+00 -4.256949234E+01 1.000021935E+00 6.503337622E-02 0.000000000E+00 1.018756957E-04 8.919799621E-11
 2.000005798E+02 0.000000000E+00 -4.197829056E+01 1.000021935E+00 6.503329426E-02 0.000000000E+00 1.016219612E-04 9.106845833E-11
 2.000005798E+02 0.000000000E+00 -4.139918518E+01 1.000021935E+00 6.503320485E-02 0.000000000E+00 1.013721849E-04 9.386243172E-11
 2.000005798E+02 0.000000000E+00 -4.083189011E+01 1.000021935E+00 6.503312290E-02 0.000000000E+00 1.011275017E-04 9.659942984E-11
 2.000005798E+02 0.000000000E+00 -4.027614212E+01 1.000021935E+00 6.503303349E-02 0.000000000E+00 1.008866966E-04 1.004938840E-10
 2.000005798E+02 0.000000000E+00 -3.973166656E+01 1.000021935E+00 6.503294408E-02 0.000000000E+00 1.006507737E-04 1.043093389E-10
 2.000005798E+02 0.000000000E+00 -3.919820786E+01 1.000021935E+00 6.503284723E-02 0.000000000E+00 1.004186342E-04 1.095401686E-10
 2.000005798E+02 0.000000000E+00 -3.867551422E+01 1.000021935E+00 6.503275782E-02 0.000000000E+00 1.001911805E-04 1.146654438E-10
 2.000005798E+02 0.000000000E+00 -3.816333008E+01 1.000021935E+00 6.503265351E-02 0.000000000E+00 9.996741574E-05 1.214831846E-10
 2.000005798E+02 0.000000000E+00 -3.766141891E+01 1.000021935E+00 6.503254920E-02 0.000000000E+00 9.974813293E-05 1.281641876E-10
 2.000005798E+02 0.000000000E+00 -3.716954422E+01 1.000021935E+00 6.503243744E-02 0.000000000E+00 9.953244444E-05 1.368280766E-10
 2.000005798E+02 0.000000000E+00 -3.668746948E+01 1.000021935E+00 6.503232569E-02 0.000000000E+00 9.932105604E-05 1.453193538E-10
 2.000005798E+02 0.000000000E+00 -3.621497345E+01 1.000021935E+00 6.503219903E-02 0.000000000E+00 9.911315283E-05 1.560908208E-10
 2.000005798E+02 0.000000000E+00 -3.575183105E+01 1.000021935E+00 6.503207982E-02 0.000000000E+00 9.890936053E-05 1.666490557E-10
 2.000005798E+02 0.000000000E+00 -3.529782867E+01 1.000021935E+00 6.503193825E-02 0.000000000E+00 9.870894428E-05 1.797848814E-10
 2.000005798E+02 0.000000000E+00 -3.485276031E+01 1.000021935E+00 6.503180414E-02 0.000000000E+00 9.851247887E-05 1.926622056E-10
 2.000005798E+02 0.000000000E+00 -3.441641235E+01 1.000021935E+00 6.503164768E-02 0.000000000E+00 9.831928037E-05 2.084072775E-10
 2.000005798E+02 0.000000000E+00 -3.398858643E+01 1.000021935E+00 6.503149867E-02 0.000000000E+00 9.812985809E-05 2.238448316E-10
 2.000005798E+02 0.000000000E+00 -3.356908417E+01 1.000021935E+00 6.503132731E-02 0.000000000E+00 9.794359357E-05 2.424261347E-10
 2.000005798E+02 0.000000000E+00 -3.315771866E+01 1.000021935E+00 6.503116339E-02 0.000000000E+00 9.776094521E-05 2.606470317E-10
 2.000005798E+02 0.000000000E+00 -3.275429916E+01 1.000021935E+00 6.503096968E-02 0.000000000E+00 9.758135275E-05 2.822669043E-10
 2.000005798E+02 0.000000000E+00 -3.235864258E+01 1.000021935E+00 6.503077596E-02 0.000000000E+00 9.740521637E-05 3.034707763E-10
 2.000005798E+02 0.000000000E+00 -3.197056961E+01 1.000021935E+00 6.503055990E-02 0.000000000E+00 9.723201947E-05 3.283020522E-10
 2.000005798E+02 0.000000000E+00 -3.158990479E+01 1.000021935E+00 6.503035128E-02 0.000000000E+00 9.706213314E-05 3.526593184E-10
 2.000005798E+02 0.000000000E+00 -3.121647835E+01 1.000021935E+00 6.503011286E-02 0.000000000E+00 9.689508443E-05 3.808404980E-10
 2.000005798E+02 0.000000000E+00 -3.085012245E+01 1.000021935E+00 6.502988189E-02 0.000000000E+00 9.673120076E-05 4.084880767E-10
 2.000005798E+02 0.000000000E+00 -3.049067497E+01 1.000021935E+00 6.502961367E-02 0.000000000E+00 9.657005285E-05 4.401198295E-10
 2.000005798E+02 0.000000000E+00 -3.013797760E+01 1.000021935E+00 6.502935290E-02 0.000000000E+00 9.641192446E-05 4.711575574E-10
 2.000005798E+02 0.000000000E+00 -2.979187202E+01 1.000021935E+00 6.502906233E-02 0.000000000E+00 9.625642997E-05 5.062998354E-10
 2.000005798E+02 0.000000000E+00 -2.945220757E+01 1.000021935E+00 6.502877176E-02 0.000000000E+00 9.610382403E-05 5.407880810E-10
 2.000005798E+02 0.000000000E+00 -2.911883545E+01 1.000021935E+00 6.502845138E-02 0.000000000E+00 9.595375013E-05 5.794588698E-10
 2.000005798E+02 0.000000000E+00 -2.879160881E+01 1.000021935E+00 6.502813101E-02 0.000000000E+00 9.580644110E-05 6.174167844E-10
 2.000005798E+02 0.000000000E+00 -2.847039032E+01 1.000021935E+00 6.502778083E-02 0.000000000E+00 9.566155495E-05 6.595915480E-10
 2.000005798E+02 0.000000000E+00 -2.815503693E+01 1.000021935E+00 6.502743065E-02 0.000000000E+00 9.551931726E-05 7.009962610E-10
 2.000005798E+02 0.000000000E+00 -2.784541702E+01 1.000021935E+00 6.502705067E-02 0.000000000E+00 9.537941514E-05 7.466080532E-10
 2.000005798E+02 0.000000000E+00 -2.754139519E+01 1.000021935E+00 6.502667069E-02 0.000000000E+00 9.524203779E-05 7.913951161E-10
 2.000005798E+02 0.000000000E+00 -2.724284363E+01 1.000021935E+00 6.502625346E-02 0.000000000E+00 9.510689415E-05 8.403358009E-10
 2.000005798E+02 0.000000000E+00 -2.694963646E+01 1.000021935E+00 6.502584368E-02 0.000000000E+00 9.497417341E-05 8.884003533E-10
 2.000005798E+02 0.000000000E+00 -2.666165161E+01 1.000021935E+00 6.502539665E-02 0.000000000E+00 9.484359180E-05 9.405218826E-10
 2.000005798E+02 0.000000000E+00 -2.637876511E+01 1.000021935E+00 6.502495706E-02 0.000000000E+00 9.471532394E-05 9.917207056E-10
 2.000005798E+02 0.000000000E+00 -2.610086250E+01 1.000021935E+00 6.502447277E-02 0.000000000E+00 9.458911518E-05 1.046838949E-09
 2.000005798E+02 0.000000000E+00 -2.582782745E+01 1.000021935E+00 6.502400339E-02 0.000000000E+00 9.446511103E-05 1.100991742E-09
 2.000005798E+02 0.000000000E+00 -2.555954742E+01 1.000021935E+00 6.502348930E-02 0.000000000E+00 9.434307867E-05 1.158887986E-09
 2.000005798E+02 0.000000000E+00 -2.529591560E+01 1.000021935E+00 6.502299011E-02 0.000000000E+00 9.422315634E-05 1.215781142E-09
 2.000005798E+02 0.000000000E+00 -2.503681946E+01 1.000021935E+00 6.502243876E-02 0.000000000E+00 9.410512575E-05 1.276205697E-09
 2.000005798E+02 0.000000000E+00 -2.478215981E+01 1.000021935E+00 6.502190232E-02 0.000000000E+00 9.398911061E-05 1.335595634E-09
 2.000005798E+02 0.000000000E+00 -2.453182983E+01 1.000021935E+00 6.502132863E-02 0.000000000E+00 9.387489990E-05 1.398271610E-09
 2.000005798E+02 0.000000000E+00 -2.428573418E+01 1.000021935E+00 6.502076238E-02 0.000000000E+00 9.376261733E-05 1.459887322E-09
 2.000005798E+02 0.000000000E+00 -2.404377174E+01 1.000021935E+00 6.502015144E-02 0.000000000E+00 9.365206643E-05 1.524513626E-09
 2.000005798E+02 0.000000000E+00 -2.380584717E+01 1.000021935E+00 6.501955539E-02 0.000000000E+00 9.354336362E-05 1.588061349E-09
 2.000005798E+02 0.000000000E+00 -2.357186890E+01 1.000021935E+00 6.501892209E-02 0.000000000E+00 9.343631245E-05 1.654317683E-09
 2.000005798E+02 0.000000000E+00 -2.334174538E+01 1.000021935E+00 6.501829624E-02 0.000000000E+00 9.333102207E-05 1.719482556E-09
 2.000005798E+02 0.000000000E+00 -2.311538696E+01 1.000021935E+00 6.501763314E-02 0.000000000E+00 9.322731785E-05 1.787032078E-09
 2.000005798E+02 0.000000000E+00 -2.289270973E+01 1.000021935E+00 6.501697749E-02 0.000000000E+00 9.312530165E-05 1.853483034E-09
 2.000005798E+02 0.000000000E+00 -2.267362404E+01 1.000021935E+00 6.501628458E-02 0.000000000E+00 9.302479884E-05 1.921975024E-09
 2.000005798E+02 0.000000000E+00 -2.245805168E+01 1.000021935E+00 6.501560658E-02 0.000000000E+00 9.292590403E-05 1.989368448E-09
 2.000005798E+02 0.000000000E+00 -2.224590683E+01 1.000021935E+00 6.501489133E-02 0.000000000E+00 9.282845713E-05 2.058442528E-09
 2.000005798E+02 0.000000000E+00 -2.203711510E+01 1.000021935E+00 6.501418352E-02 0.000000000E+00 9.273255273E-05 2.126425036E-09
 2.000005798E+02 0.000000000E+00 -2.183159637E+01 1.000021935E+00 6.501344591E-02 0.000000000E+00 9.263803804E-05 2.195714277E-09
 2.000005798E+02 0.000000000E+00 -2.162927628E+01 1.000021935E+00 6.501271576E-02 0.000000000E+00 9.254499309E-05 2.263925269E-09
 2.000005798E+02 0.000000000E+00 -2.143008041E+01 1.000021935E+00 6.501195580E-02 0.000000000E+00 9.245327237E-05 2.333058413E-09
 2.000005798E+02 0.000000000E+00 -2.123393631E+01 1.000021935E+00 6.501120329E-02 0.000000000E+00 9.236295591E-05 2.401132626E-09
 2.000005798E+02 0.000000000E+00 -2.104077530E+01 1.000021935E+00 6.501042098E-02 0.000000000E+00 9.227391274E-05 2.469737748E-09
 2.000005798E+02 0.000000000E+00 -2.085052681E+01 1.000021935E+00 6.500965357E-02 0.000000000E+00 9.218620835E-05 2.537308585E-09
 2.000005798E+02 0.000000000E+00 -2.066312408E+01 1.000021935E+00 6.500885636E-02 0.000000000E+00 9.209971904E-05 2.605013316E-09
 2.000005798E+02 0.000000000E+00 -2.047850037E+01 1.000021935E+00 6.500806659E-02 0.000000000E+00 9.201451030E-05 2.671714183E-09
 2.000005798E+02 0.000000000E+00 -2.029659462E+01 1.000021935E+00 6.500725448E-02 0.000000000E+00 9.193046571E-05 2.738149707E-09
 2.000005798E+02 0.000000000E+00 -2.011734200E+01 1.000021935E+00 6.500644982E-02 0.000000000E+00 9.184764349E-05 2.803616450E-09
 2.000005798E+02 0.000000000E+00 -1.994068146E+01 1.000021935E+00 6.500562280E-02 0.000000000E+00 9.176593449E-05 2.868417504E-09
 2.000005798E+02 0.000000000E+00 -1.976655388E+01 1.000021935E+00 6.500480324E-02 0.000000000E+00 9.168539691E-05 2.932289300E-09
 2.000005798E+02 0.000000000E+00 -1.959489822E+01 1.000021935E+00 6.500396132E-02 0.000000000E+00 9.160592163E-05 2.995095949E-09
 2.000005798E+02 0.000000000E+00 -1.942566109E+01 1.000021935E+00 6.500312686E-02 0.000000000E+00 9.152756684E-05 3.057017750E-09
 2.000005798E+02 0.000000000E+00 -1.925878525E+01 1.000021935E+00 6.500227749E-02 0.000000000E+00 9.145023068E-05 3.117476277E-09
 2.000005798E+02 0.000000000E+00 -1.909421539E+01 1.000021935E+00 6.500143558E-02 0.000000000E+00 9.137396410E-05 3.177099472E-09
 2.000005798E+02 0.000000000E+00 -1.893190002E+01 1.000021935E+00 6.500057876E-02 0.000000000E+00 9.129866521E-05 3.234864598E-09
 2.000005798E+02 0.000000000E+00 -1.877178574E+01 1.000021935E+00 6.499972939E-02 0.000000000E+00 9.122438496E-05 3.291846351E-09
 2.000005798E+02 0.000000000E+00 -1.861382103E+01 1.000021935E+00 6.499886513E-02 0.000000000E+00 9.115103603E-05 3.346580346E-09
 2.000005798E+02 0.000000000E+00 -1.845795822E+01 1.000021935E+00 6.499800831E-02 0.000000000E+00 9.107866936E-05 3.400586257E-09
 2.000005798E+02 0.000000000E+00 -1.830414772E+01 1.000021935E+00 6.499714404E-02 0.000000000E+00 9.100719035E-05 3.451959607E-09
 2.000005798E+02 0.000000000E+00 -1.815234184E+01 1.000021935E+00 6.499628723E-02 0.000000000E+00 9.093664266E-05 3.502663271E-09
 2.000005798E+02 0.000000000E+00 -1.800249481E+01 1.000021935E+00 6.499541551E-02 0.000000000E+00 9.086694627E-05 3.550356231E-09
 2.000005798E+02 0.000000000E+00 -1.785456276E+01 1.000021935E+00 6.499455124E-02 0.000000000E+00 9.079814481E-05 3.597439679E-09
 2.000005798E+02 0.000000000E+00 -1.770849800E+01 1.000021935E+00 6.499367952E-02 0.000000000E+00 9.073015826E-05 3.641141166E-09
 2.000005798E+02 0.000000000E+00 -1.756426048E+01 1.000021935E+00 6.499282271E-02 0.000000000E+00 9.066301573E-05 3.684295757E-09
 2.000005798E+02 0.000000000E+00 -1.742180824E+01 1.000021935E+00 6.499195099E-02 0.000000000E+00 9.059665899E-05 3.723704012E-09
 2.000005798E+02 0.000000000E+00 -1.728109741E+01 1.000021935E+00 6.499109417E-02 0.000000000E+00 9.053110989E-05 3.762630651E-09
 2.000005798E+02 0.000000000E+00 -1.714209175E+01 1.000021935E+00 6.499022990E-02 0.000000000E+00 9.046631021E-05 3.797455239E-09
 2.000005798E+02 0.000000000E+00 -1.700474739E+01 1.000021935E+00 6.498937309E-02 0.000000000E+00 9.040228906E-05 3.831863715E-09
 2.000005798E+02 0.000000000E+00 -1.686902809E+01 1.000021935E+00 6.498850882E-02 0.000000000E+00 9.033898095E-05 3.861824194E-09
 2.000005798E+02 0.000000000E+00 -1.673489571E+01 1.000021935E+00 6.498765945E-02 0.000000000E+00 9.027640772E-05 3.891434286E-09
 2.000005798E+02 0.000000000E+00 -1.660231590E+01 1.000021935E+00 6.498681009E-02 0.000000000E+00 9.021452570E-05 3.916261093E-09
 2.000005798E+02 0.000000000E+00 -1.647125053E+01 1.000021935E+00 6.498596817E-02 0.000000000E+00 9.015335672E-05 3.940804127E-09
 2.000005798E+02 0.000000000E+00 -1.634166527E+01 1.000021935E+00 6.498512626E-02 0.000000000E+00 9.009283531E-05 3.960240136E-09
 2.000005798E+02 0.000000000E+00 -1.621352577E+01 1.000021935E+00 6.498429179E-02 0.000000000E+00 9.003299056E-05 3.979458985E-09
 2.000005798E+02 0.000000000E+00 -1.608679771E+01 1.000021815E+00 6.498345733E-02 0.000000000E+00 8.997377881E-05 3.993259945E-09
 2.000005798E+02 0.000000000E+00 -1.596145058E+01 1.000021815E+00 6.498263776E-02 0.000000000E+00 8.991520735E-05 4.006910803E-09
 2.000005798E+02 0.000000000E+00 -1.583745193E+01 1.000021815E+00 6.498181820E-02 0.000000000E+00 8.985723980E-05 4.014848010E-09
 2.000005798E+02 0.000000000E+00 -1.571476936E+01 1.000021815E+00 6.498100609E-02 0.000000000E+00 8.979989070E-05 4.022701283E-09
 2.000005798E+02 0.000000000E+00 -1.559337330E+01 1.000021815E+00 6.498020142E-02 0.000000000E+00 8.974311640E-05 4.024563793E-09
 2.000005798E+02 0.000000000E+00 -1.547323322E+01 1.000021815E+00 6.497941166E-02 0.000000000E+00 8.968693146E-05 4.026407208E-09
 2.000005798E+02 0.000000000E+00 -1.535432148E+01 1.000021815E+00 6.497862190E-02 0.000000000E+00 8.963129949E-05 4.022003175E-09
 2.000005798E+02 0.000000000E+00 -1.523660946E+01 1.000021815E+00 6.497783959E-02 0.000000000E+00 8.957623504E-05 4.017643995E-09
 2.000005798E+02 0.000000000E+00 -1.512006855E+01 1.000021815E+00 6.497707218E-02 0.000000000E+00 8.952169446E-05 4.006808219E-09
 2.000005798E+02 0.000000000E+00 -1.500467205E+01 1.000021815E+00 6.497631222E-02 0.000000000E+00 8.946769231E-05 3.996078579E-09
 2.000005798E+02 0.000000000E+00 -1.489039326E+01 1.000021815E+00 6.497555971E-02 0.000000000E+00 8.941419946E-05 3.978676943E-09
 2.000005798E+02 0.000000000E+00 -1.477720737E+01 1.000021815E+00 6.497481465E-02 0.000000000E+00 8.936121594E-05 3.961441397E-09
 2.000005798E+02 0.000000000E+00 -1.466508770E+01 1.000021815E+00 6.497409195E-02 0.000000000E+00 8.930871991E-05 3.937384641E-09
 2.000005798E+02 0.000000000E+00 -1.455401039E+01 1.000021815E+00 6.497336924E-02 0.000000000E+00 8.925671864E-05 3.913551261E-09
 2.000005798E+02 0.000000000E+00 -1.444395161E+01 1.000021815E+00 6.497266144E-02 0.000000000E+00 8.920518303E-05 3.882816291E-09
 2.000005798E+02 0.000000000E+00 -1.433488750E+01 1.000021815E+00 6.497196108E-02 0.000000000E+00 8.915412036E-05 3.852359320E-09
 2.000005798E+02 0.000000000E+00 -1.422679424E+01 1.000021815E+00 6.497128308E-02 0.000000000E+00 8.910350152E-05 3.815036731E-09
 2.000005798E+02 0.000000000E+00 -1.411965084E+01 1.000021815E+00 6.497060508E-02 0.000000000E+00 8.905332652E-05 3.778042323E-09
 2.000005798E+02 0.000000000E+00 -1.401343441E+01 1.000021815E+00 6.496995687E-02 0.000000000E+00 8.900358807E-05 3.734435872E-09
 2.000005798E+02 0.000000000E+00 -1.390812302E+01 1.000021815E+00 6.496930867E-02 0.000000000E+00 8.895427891E-05 3.691201123E-09
 2.000005798E+02 0.000000000E+00 -1.380369759E+01 1.000021815E+00 6.496868283E-02 0.000000000E+00 8.890538447E-05 3.642050883E-09
 2.000005798E+02 0.000000000E+00 -1.370013523E+01 1.000021815E+00 6.496805698E-02 0.000000000E+00 8.885689022E-05 3.593306985E-09
 2.000005798E+02 0.000000000E+00 -1.359741783E+01 1.000021815E+00 6.496746093E-02 0.000000000E+00 8.880880341E-05 3.540313598E-09
 2.000005798E+02 0.000000000E+00 -1.349552441E+01 1.000021815E+00 6.496687233E-02 0.000000000E+00 8.876110223E-05 3.487745426E-09
 2.000005798E+02 0.000000000E+00 -1.339443684E+01 1.000021815E+00 6.496630609E-02 0.000000000E+00 8.871378668E-05 3.434818874E-09
 2.000005798E+02 0.000000000E+00 -1.329413700E+01 1.000021815E+00 6.496574730E-02 0.000000000E+00 8.866684220E-05 3.382304881E-09
 2.000005798E+02 0.000000000E+00 -1.319460487E+01 1.000021815E+00 6.496521831E-02 0.000000000E+00 8.862027607E-05 3.338380017E-09
 2.000005798E+02 0.000000000E+00 -1.309582424E+01 1.000021815E+00 6.496468931E-02 0.000000000E+00 8.857405919E-05 3.294786666E-09
 2.000005798E+02 0.000000000E+00 -1.299777603E+01 1.000021815E+00 6.496419013E-02 0.000000000E+00 8.852821338E-05 3.280673067E-09
 2.000005798E+02 0.000000000E+00 -1.290044498E+01 1.000021815E+00 6.496369839E-02 0.000000000E+00 8.848270227E-05 3.266662496E-09
 2.000005798E+02 0.000000000E+00 -1.280381393E+01 1.000021815E+00 6.496323645E-02 0.000000000E+00 8.843755495E-05 3.335167476E-09
 2.000005798E+02 0.000000000E+00 -1.270786572E+01 1.000021815E+00 6.496278197E-02 0.000000000E+00 8.839272778E-05 3.403188176E-09
 2.000005798E+02 0.000000000E+00 -1.261258602E+01 1.000021815E+00 6.496235728E-02 0.000000000E+00 8.834832261E-05 3.688578998E-09
 2.000005798E+02 0.000000000E+00 -1.251795769E+01 1.000021815E+00 6.496194005E-02 0.000000000E+00 8.830421575E-05 3.972018714E-09
 2.000005798E+02 0.000000000E+00 -1.242396736E+01 1.000021815E+00 6.496155262E-02 0.000000000E+00 8.826059639E-05 4.819354693E-09
 2.000005798E+02 0.000000000E+00 -1.233059883E+01 1.000021815E+00 6.496116519E-02 0.000000000E+00 8.821726806E-05 5.661085378E-09
 2.000005798E+02 0.000000000E+00 -1.223783779E+01 1.000021815E+00 6.496082246E-02 0.000000000E+00 8.817447087E-05 8.317111444E-09
 2.000005798E+02 0.000000000E+00 -1.214566994E+01 1.000021815E+00 6.496047974E-02 0.000000000E+00 8.813194290E-05 1.095615243E-08
 2.000005798E+02 0.000000000E+00 -1.205408287E+01 1.000021577E+00 6.496012956E-02 0.000000000E+00 8.809216524E-05 2.127784882E-08
 2.000005798E+02 0.000000000E+00 -1.196306229E+01 1.000021338E+00 6.495978683E-02 0.000000000E+00 8.805262769E-05 3.153570205E-08
 2.000005798E+02 0.000000000E+00 -1.187259388E+01 1.000020385E+00 6.495929509E-02 0.000000000E+00 8.802195953E-05 6.678227038E-08
 2.000005798E+02 0.000000000E+00 -1.178266621E+01 1.000019431E+00 6.495880336E-02 0.000000000E+00 8.799148054E-05 1.018181734E-07
 2.000005798E+02 0.000000000E+00 -1.169326687E+01 1.000017524E+00 6.495804340E-02 0.000000000E+00 8.797203918E-05 1.738170710E-07
 2.000005798E+02 0.000000000E+00 -1.160438251E+01 1.000015616E+00 6.495728344E-02 0.000000000E+00 8.795271424E-05 2.454012247E-07
 2.000005798E+02 0.000000000E+00 -1.151600075E+01 1.000012755E+00 6.495630741E-02 0.000000000E+00 8.793582674E-05 3.233800783E-07
 2.000005798E+02 0.000000000E+00 -1.142811108E+01 1.000010014E+00 6.495533139E-02 0.000000000E+00 8.791903383E-05 4.009247334E-07
 2.000005798E+02 0.000000000E+00 -1.134070206E+01 1.000006318E+00 6.495437771E-02 0.000000000E+00 8.788744162E-05 4.123564850E-07
 2.000005798E+02 0.000000000E+00 -1.125376129E+01 1.000002742E+00 6.495342404E-02 0.000000000E+00 8.785602404E-05 4.237270161E-07
 2.000005798E+02 0.000000000E+00 -1.116727924E+01 9.999983907E-01 6.495284289E-02 0.000000000E+00 8.778795745E-05 2.733698352E-07
 2.000005798E+02 0.000000000E+00 -1.108124352E+01 9.999940991E-01 6.495226920E-02 0.000000000E+00 8.772024739E-05 1.237886238E-07
 2.000005798E+02 0.000000000E+00 -1.099564457E+01 9.999891520E-01 6.495248526E-02 0.000000000E+00 8.759237244E-05 -2.923561624E-07
 2.000005798E+02 0.000000000E+00 -1.091047287E+01 9.999842644E-01 6.495270133E-02 0.000000000E+00 8.746513049E-05 -7.064238616E-07
 2.000005798E+02 0.000000000E+00 -1.082571697E+01 9.999788404E-01 6.495414674E-02 0.000000000E+00 8.725465159E-05 -1.490975706E-06
 2.000005798E+02 0.000000000E+00 -1.074136829E+01 9.999734163E-01 6.495559216E-02 0.000000000E+00 8.704517677E-05 -2.271758149E-06
 2.000005798E+02 0.000000000E+00 -1.065741730E+01 9.999675155E-01 6.495869905E-02 0.000000000E+00 8.673116827E-05 -3.519417078E-06
 2.000005798E+02 0.000000000E+00 -1.057385349E+01 9.999616742E-01 6.496179849E-02 0.000000000E+00 8.641860768E-05 -4.761321634E-06
 2.000005798E+02 0.000000000E+00 -1.049066830E+01 9.999554753E-01 6.496696919E-02 0.000000000E+00 8.598271961E-05 -6.555487744E-06
 2.000005798E+02 0.000000000E+00 -1.040785313E+01 9.999492764E-01 6.497211754E-02 0.000000000E+00 8.554876695E-05 -8.341672583E-06
 2.000005798E+02 0.000000000E+00 -1.032539940E+01 9.999427795E-01 6.497972459E-02 0.000000000E+00 8.497548697E-05 -1.075307500E-05
 2.000005798E+02 0.000000000E+00 -1.024329758E+01 9.999363422E-01 6.498730183E-02 0.000000000E+00 8.440465172E-05 -1.315418558E-05
 2.000005798E+02 0.000000000E+00 -1.016154003E+01 9.999296069E-01 6.499766558E-02 0.000000000E+00 8.368130511E-05 -1.624087599E-05
 2.000005798E+02 0.000000000E+00 -1.008011913E+01 9.999228716E-01 6.500798464E-02 0.000000000E+00 8.296094165E-05 -1.931485713E-05