TITLE     = "tecplot geometry and solution file"
VARIABLES = "x"
"y"
"z"
"rho"
"u"
"v"
"w"
"uwprime"
ZONE T="x = 650"
 STRANDID=0, SOLUTIONTIME=0
 I=735, J=1, K=1, ZONETYPE=Ordered
 DATAPACKING=POINT
 DT=(SINGLE SINGLE SINGLE SINGLE SINGLE SINGLE SINGLE SINGLE )
 6.500003662E+02 0.000000000E+00 -1.468447571E+02 1.000013471E+00 6.516565382E-02 0.000000000E+00 1.352573454E-04 9.739951901E-12
 6.500003662E+02 0.000000000E+00 -1.450802307E+02 1.000013471E+00 6.516559422E-02 0.000000000E+00 1.347629295E-04 -1.075219557E-12
 6.500003662E+02 0.000000000E+00 -1.433513794E+02 1.000013471E+00 6.516565382E-02 0.000000000E+00 1.342786854E-04 -1.417070888E-11
 6.500003662E+02 0.000000000E+00 -1.416573792E+02 1.000013471E+00 6.516571343E-02 0.000000000E+00 1.338041911E-04 -2.700221297E-11
 6.500003662E+02 0.000000000E+00 -1.399974518E+02 1.000013471E+00 6.516579539E-02 0.000000000E+00 1.333394612E-04 -2.555381601E-11
 6.500003662E+02 0.000000000E+00 -1.383708038E+02 1.000013471E+00 6.516586989E-02 0.000000000E+00 1.328840444E-04 -2.413445659E-11
 6.500003662E+02 0.000000000E+00 -1.367766571E+02 1.000013471E+00 6.516591460E-02 0.000000000E+00 1.324376935E-04 -1.640000635E-11
 6.500003662E+02 0.000000000E+00 -1.352142792E+02 1.000013471E+00 6.516595185E-02 0.000000000E+00 1.320002484E-04 -8.819689770E-12
 6.500003662E+02 0.000000000E+00 -1.336829224E+02 1.000013471E+00 6.516595185E-02 0.000000000E+00 1.315713744E-04 -1.348570344E-12
 6.500003662E+02 0.000000000E+00 -1.321818695E+02 1.000013471E+00 6.516595185E-02 0.000000000E+00 1.311509841E-04 5.974703371E-12
 6.500003662E+02 0.000000000E+00 -1.307104187E+02 1.000013471E+00 6.516592205E-02 0.000000000E+00 1.307387865E-04 1.046857132E-11
 6.500003662E+02 0.000000000E+00 -1.292679138E+02 1.000013471E+00 6.516589224E-02 0.000000000E+00 1.303347090E-04 1.487403777E-11
 6.500003662E+02 0.000000000E+00 -1.278536606E+02 1.000013471E+00 6.516585499E-02 0.000000000E+00 1.299384749E-04 1.627241050E-11
 6.500003662E+02 0.000000000E+00 -1.264670181E+02 1.000013471E+00 6.516581774E-02 0.000000000E+00 1.295499824E-04 1.764348216E-11
 6.500003662E+02 0.000000000E+00 -1.251073532E+02 1.000013471E+00 6.516578048E-02 0.000000000E+00 1.291690278E-04 1.690796982E-11
 6.500003662E+02 0.000000000E+00 -1.237740326E+02 1.000013471E+00 6.516574323E-02 0.000000000E+00 1.287954656E-04 1.618670996E-11
 6.500003662E+02 0.000000000E+00 -1.224664536E+02 1.000013471E+00 6.516571343E-02 0.000000000E+00 1.284291211E-04 1.441646889E-11
 6.500003662E+02 0.000000000E+00 -1.211840286E+02 1.000013471E+00 6.516569108E-02 0.000000000E+00 1.280698198E-04 1.268028217E-11
 6.500003662E+02 0.000000000E+00 -1.199261703E+02 1.000013471E+00 6.516566873E-02 0.000000000E+00 1.277174160E-04 1.070906298E-11
 6.500003662E+02 0.000000000E+00 -1.186923141E+02 1.000013471E+00 6.516564637E-02 0.000000000E+00 1.273717498E-04 8.775457791E-12
 6.500003662E+02 0.000000000E+00 -1.174819031E+02 1.000013471E+00 6.516563147E-02 0.000000000E+00 1.270326611E-04 7.093697157E-12
 6.500003662E+02 0.000000000E+00 -1.162944031E+02 1.000013471E+00 6.516562402E-02 0.000000000E+00 1.266999898E-04 5.443769133E-12
 6.500003662E+02 0.000000000E+00 -1.151292801E+02 1.000013471E+00 6.516561657E-02 0.000000000E+00 1.263736049E-04 4.262053384E-12
 6.500003662E+02 0.000000000E+00 -1.139860229E+02 1.000013471E+00 6.516560912E-02 0.000000000E+00 1.260533318E-04 3.102514773E-12
 6.500003662E+02 0.000000000E+00 -1.128641281E+02 1.000013471E+00 6.516560912E-02 0.000000000E+00 1.257390541E-04 2.449229404E-12
 6.500003662E+02 0.000000000E+00 -1.117630997E+02 1.000013471E+00 6.516560912E-02 0.000000000E+00 1.254306262E-04 1.808094581E-12
 6.500003662E+02 0.000000000E+00 -1.106824493E+02 1.000013471E+00 6.516560167E-02 0.000000000E+00 1.251279027E-04 1.614050473E-12
 6.500003662E+02 0.000000000E+00 -1.096217194E+02 1.000013471E+00 6.516560167E-02 0.000000000E+00 1.248307672E-04 1.423583365E-12
 6.500003662E+02 0.000000000E+00 -1.085804443E+02 1.000013471E+00 6.516560167E-02 0.000000000E+00 1.245390740E-04 1.580685235E-12
 6.500003662E+02 0.000000000E+00 -1.075581818E+02 1.000013471E+00 6.516560167E-02 0.000000000E+00 1.242527069E-04 1.734918632E-12
 6.500003662E+02 0.000000000E+00 -1.065544815E+02 1.000013471E+00 6.516559422E-02 0.000000000E+00 1.239715202E-04 2.131019753E-12
 6.500003662E+02 0.000000000E+00 -1.055689240E+02 1.000013471E+00 6.516559422E-02 0.000000000E+00 1.236954267E-04 2.519961019E-12
 6.500003662E+02 0.000000000E+00 -1.046010895E+02 1.000013471E+00 6.516559422E-02 0.000000000E+00 1.234242955E-04 3.056598811E-12
 6.500003662E+02 0.000000000E+00 -1.036505661E+02 1.000013471E+00 6.516559422E-02 0.000000000E+00 1.231580100E-04 3.583637944E-12
 6.500003662E+02 0.000000000E+00 -1.027169571E+02 1.000013471E+00 6.516558677E-02 0.000000000E+00 1.228964538E-04 4.183001168E-12
 6.500003662E+02 0.000000000E+00 -1.017998734E+02 1.000013471E+00 6.516557932E-02 0.000000000E+00 1.226395252E-04 4.771755040E-12
 6.500003662E+02 0.000000000E+00 -1.008989334E+02 1.000013471E+00 6.516557187E-02 0.000000000E+00 1.223871222E-04 5.377593336E-12
 6.500003662E+02 0.000000000E+00 -1.000137634E+02 1.000013471E+00 6.516557187E-02 0.000000000E+00 1.221391285E-04 5.972826834E-12
 6.500003662E+02 0.000000000E+00 -9.914400482E+01 1.000013471E+00 6.516556442E-02 0.000000000E+00 1.218954421E-04 6.548315709E-12
 6.500003662E+02 0.000000000E+00 -9.828929138E+01 1.000013471E+00 6.516555697E-02 0.000000000E+00 1.216559758E-04 7.113849440E-12
 6.500003662E+02 0.000000000E+00 -9.744928741E+01 1.000013471E+00 6.516554207E-02 0.000000000E+00 1.214206204E-04 7.638186091E-12
 6.500003662E+02 0.000000000E+00 -9.662364960E+01 1.000013471E+00 6.516553462E-02 0.000000000E+00 1.211892886E-04 8.153555088E-12
 6.500003662E+02 0.000000000E+00 -9.581204224E+01 1.000013471E+00 6.516552716E-02 0.000000000E+00 1.209618858E-04 8.618233731E-12
 6.500003662E+02 0.000000000E+00 -9.501414490E+01 1.000013471E+00 6.516551971E-02 0.000000000E+00 1.207383175E-04 9.075063617E-12
 6.500003662E+02 0.000000000E+00 -9.422964478E+01 1.000013471E+00 6.516550481E-02 0.000000000E+00 1.205185035E-04 9.480394768E-12
 6.500003662E+02 0.000000000E+00 -9.345822906E+01 1.000013471E+00 6.516549736E-02 0.000000000E+00 1.203023494E-04 9.878965701E-12
 6.500003662E+02 0.000000000E+00 -9.269959259E+01 1.000013471E+00 6.516548991E-02 0.000000000E+00 1.200897750E-04 1.023103217E-11
 6.500003662E+02 0.000000000E+00 -9.195345306E+01 1.000013471E+00 6.516548246E-02 0.000000000E+00 1.198807004E-04 1.057729945E-11
 6.500003662E+02 0.000000000E+00 -9.121950531E+01 1.000013471E+00 6.516546756E-02 0.000000000E+00 1.196750381E-04 1.088548262E-11
 6.500003662E+02 0.000000000E+00 -9.049748230E+01 1.000013471E+00 6.516546011E-02 0.000000000E+00 1.194727156E-04 1.118865937E-11
 6.500003662E+02 0.000000000E+00 -8.978710938E+01 1.000013471E+00 6.516544521E-02 0.000000000E+00 1.192736527E-04 1.146373881E-11
 6.500003662E+02 0.000000000E+00 -8.908810425E+01 1.000013471E+00 6.516543776E-02 0.000000000E+00 1.190777693E-04 1.173441552E-11
 6.500003662E+02 0.000000000E+00 -8.840021515E+01 1.000013471E+00 6.516542286E-02 0.000000000E+00 1.188850001E-04 1.198720376E-11
 6.500003662E+02 0.000000000E+00 -8.772318268E+01 1.000013471E+00 6.516541541E-02 0.000000000E+00 1.186952795E-04 1.223600214E-11
 6.500003662E+02 0.000000000E+00 -8.705675507E+01 1.000013471E+00 6.516540051E-02 0.000000000E+00 1.185085202E-04 1.247642788E-11
 6.500003662E+02 0.000000000E+00 -8.640069580E+01 1.000013471E+00 6.516539305E-02 0.000000000E+00 1.183246713E-04 1.271311268E-11
 6.500003662E+02 0.000000000E+00 -8.575475311E+01 1.000013471E+00 6.516537815E-02 0.000000000E+00 1.181436455E-04 1.294969861E-11
 6.500003662E+02 0.000000000E+00 -8.511870575E+01 1.000013471E+00 6.516537070E-02 0.000000000E+00 1.179653991E-04 1.318265982E-11
 6.500003662E+02 0.000000000E+00 -8.449231720E+01 1.000013471E+00 6.516535580E-02 0.000000000E+00 1.177898521E-04 1.342229106E-11
 6.500003662E+02 0.000000000E+00 -8.387537384E+01 1.000013471E+00 6.516534835E-02 0.000000000E+00 1.176169535E-04 1.365830973E-11
 6.500003662E+02 0.000000000E+00 -8.326764679E+01 1.000013471E+00 6.516533345E-02 0.000000000E+00 1.174466306E-04 1.390621299E-11
 6.500003662E+02 0.000000000E+00 -8.266892242E+01 1.000013471E+00 6.516532600E-02 0.000000000E+00 1.172788325E-04 1.415044384E-11
 6.500003662E+02 0.000000000E+00 -8.207900238E+01 1.000013471E+00 6.516531110E-02 0.000000000E+00 1.171134936E-04 1.441031842E-11
 6.500003662E+02 0.000000000E+00 -8.149768829E+01 1.000013471E+00 6.516529620E-02 0.000000000E+00 1.169505704E-04 1.466640177E-11
 6.500003662E+02 0.000000000E+00 -8.092476654E+01 1.000013471E+00 6.516528130E-02 0.000000000E+00 1.167899973E-04 1.494060778E-11
 6.500003662E+02 0.000000000E+00 -8.036004639E+01 1.000013471E+00 6.516527385E-02 0.000000000E+00 1.166317234E-04 1.521088810E-11
 6.500003662E+02 0.000000000E+00 -7.980335236E+01 1.000013471E+00 6.516525894E-02 0.000000000E+00 1.164756904E-04 1.550071009E-11
 6.500003662E+02 0.000000000E+00 -7.925448608E+01 1.000013471E+00 6.516525149E-02 0.000000000E+00 1.163218476E-04 1.578645721E-11
 6.500003662E+02 0.000000000E+00 -7.871326447E+01 1.000013471E+00 6.516523659E-02 0.000000000E+00 1.161701512E-04 1.609234794E-11
 6.500003662E+02 0.000000000E+00 -7.817952728E+01 1.000013471E+00 6.516522914E-02 0.000000000E+00 1.160205502E-04 1.639400941E-11
 6.500003662E+02 0.000000000E+00 -7.765308380E+01 1.000013471E+00 6.516521424E-02 0.000000000E+00 1.158729865E-04 1.671581103E-11
 6.500003662E+02 0.000000000E+00 -7.713378143E+01 1.000013471E+00 6.516520679E-02 0.000000000E+00 1.157274237E-04 1.703324634E-11
 6.500003662E+02 0.000000000E+00 -7.662144470E+01 1.000013471E+00 6.516519189E-02 0.000000000E+00 1.155838108E-04 1.737040720E-11
 6.500003662E+02 0.000000000E+00 -7.611592102E+01 1.000013471E+00 6.516518444E-02 0.000000000E+00 1.154421116E-04 1.770308379E-11
 6.500003662E+02 0.000000000E+00 -7.561704254E+01 1.000013471E+00 6.516516954E-02 0.000000000E+00 1.153022677E-04 1.805482153E-11
 6.500003662E+02 0.000000000E+00 -7.512466431E+01 1.000013471E+00 6.516515464E-02 0.000000000E+00 1.151642427E-04 1.840197612E-11
 6.500003662E+02 0.000000000E+00 -7.463863373E+01 1.000013471E+00 6.516513973E-02 0.000000000E+00 1.150280004E-04 1.876741297E-11
 6.500003662E+02 0.000000000E+00 -7.415880585E+01 1.000013471E+00 6.516513228E-02 0.000000000E+00 1.148934898E-04 1.912818688E-11
 6.500003662E+02 0.000000000E+00 -7.368503571E+01 1.000013471E+00 6.516511738E-02 0.000000000E+00 1.147606745E-04 1.950643987E-11
 6.500003662E+02 0.000000000E+00 -7.321718597E+01 1.000013471E+00 6.516510248E-02 0.000000000E+00 1.146295181E-04 1.987996746E-11
 6.500003662E+02 0.000000000E+00 -7.275511932E+01 1.000013471E+00 6.516508758E-02 0.000000000E+00 1.144999769E-04 2.027022300E-11
 6.500003662E+02 0.000000000E+00 -7.229870605E+01 1.000013471E+00 6.516508013E-02 0.000000000E+00 1.143720219E-04 2.065570458E-11
 6.500003662E+02 0.000000000E+00 -7.184780884E+01 1.000013471E+00 6.516506523E-02 0.000000000E+00 1.142456094E-04 2.105724622E-11
 6.500003662E+02 0.000000000E+00 -7.140229797E+01 1.000013471E+00 6.516505033E-02 0.000000000E+00 1.141207104E-04 2.145398963E-11
 6.500003662E+02 0.000000000E+00 -7.096205902E+01 1.000013471E+00 6.516503543E-02 0.000000000E+00 1.139972810E-04 2.186623452E-11
 6.500003662E+02 0.000000000E+00 -7.052696228E+01 1.000013471E+00 6.516502798E-02 0.000000000E+00 1.138752996E-04 2.227366555E-11
 6.500003662E+02 0.000000000E+00 -7.009689331E+01 1.000013471E+00 6.516501307E-02 0.000000000E+00 1.137547224E-04 2.269616266E-11
 6.500003662E+02 0.000000000E+00 -6.967173767E+01 1.000013471E+00 6.516499817E-02 0.000000000E+00 1.136355204E-04 2.311383376E-11
 6.500003662E+02 0.000000000E+00 -6.925138092E+01 1.000013471E+00 6.516498327E-02 0.000000000E+00 1.135176572E-04 2.354624828E-11
 6.500003662E+02 0.000000000E+00 -6.883570862E+01 1.000013471E+00 6.516497582E-02 0.000000000E+00 1.134011109E-04 2.397384548E-11
 6.500003662E+02 0.000000000E+00 -6.842462158E+01 1.000013471E+00 6.516496092E-02 0.000000000E+00 1.132858451E-04 2.441595884E-11
 6.500003662E+02 0.000000000E+00 -6.801799774E+01 1.000013471E+00 6.516494602E-02 0.000000000E+00 1.131718309E-04 2.485327048E-11
 6.500003662E+02 0.000000000E+00 -6.761575317E+01 1.000013471E+00 6.516493112E-02 0.000000000E+00 1.130590390E-04 2.530496472E-11
 6.500003662E+02 0.000000000E+00 -6.721777344E+01 1.000013471E+00 6.516491622E-02 0.000000000E+00 1.129474404E-04 2.575186939E-11
 6.500003662E+02 0.000000000E+00 -6.682396698E+01 1.000013471E+00 6.516490132E-02 0.000000000E+00 1.128370131E-04 2.621309593E-11
 6.500003662E+02 0.000000000E+00 -6.643423462E+01 1.000013471E+00 6.516488642E-02 0.000000000E+00 1.127277283E-04 2.666955198E-11
 6.500003662E+02 0.000000000E+00 -6.604848480E+01 1.000013471E+00 6.516487151E-02 0.000000000E+00 1.126195566E-04 2.714031777E-11
 6.500003662E+02 0.000000000E+00 -6.566662598E+01 1.000013471E+00 6.516485661E-02 0.000000000E+00 1.125124691E-04 2.760633562E-11
 6.500003662E+02 0.000000000E+00 -6.528855896E+01 1.000013471E+00 6.516484171E-02 0.000000000E+00 1.124064438E-04 2.808668749E-11
 6.500003662E+02 0.000000000E+00 -6.491420746E+01 1.000013471E+00 6.516482681E-02 0.000000000E+00 1.123014663E-04 2.856231918E-11
 6.500003662E+02 0.000000000E+00 -6.454347992E+01 1.000013471E+00 6.516481191E-02 0.000000000E+00 1.121975001E-04 2.905231437E-11
 6.500003662E+02 0.000000000E+00 -6.417630005E+01 1.000013471E+00 6.516479701E-02 0.000000000E+00 1.120945308E-04 2.953761888E-11
 6.500003662E+02 0.000000000E+00 -6.381258011E+01 1.000013471E+00 6.516478211E-02 0.000000000E+00 1.119925219E-04 3.003731985E-11
 6.500003662E+02 0.000000000E+00 -6.345223999E+01 1.000013471E+00 6.516476721E-02 0.000000000E+00 1.118914661E-04 3.053237871E-11
 6.500003662E+02 0.000000000E+00 -6.309519958E+01 1.000013471E+00 6.516475230E-02 0.000000000E+00 1.117913271E-04 3.104187046E-11
 6.500003662E+02 0.000000000E+00 -6.274139023E+01 1.000013471E+00 6.516473740E-02 0.000000000E+00 1.116920976E-04 3.154675132E-11
 6.500003662E+02 0.000000000E+00 -6.239073181E+01 1.000013471E+00 6.516471505E-02 0.000000000E+00 1.115937484E-04 3.206607896E-11
 6.500003662E+02 0.000000000E+00 -6.204315186E+01 1.000013471E+00 6.516470015E-02 0.000000000E+00 1.114962579E-04 3.258084774E-11
 6.500003662E+02 0.000000000E+00 -6.169858170E+01 1.000013471E+00 6.516468525E-02 0.000000000E+00 1.113996113E-04 3.311004595E-11
 6.500003662E+02 0.000000000E+00 -6.135695267E+01 1.000013471E+00 6.516467035E-02 0.000000000E+00 1.113037870E-04 3.363472695E-11
 6.500003662E+02 0.000000000E+00 -6.101819229E+01 1.000013471E+00 6.516464800E-02 0.000000000E+00 1.112087702E-04 3.417380962E-11
 6.500003662E+02 0.000000000E+00 -6.068223953E+01 1.000013471E+00 6.516463310E-02 0.000000000E+00 1.111145393E-04 3.470842710E-11
 6.500003662E+02 0.000000000E+00 -6.034902573E+01 1.000013471E+00 6.516461819E-02 0.000000000E+00 1.110210724E-04 3.525738382E-11
 6.500003662E+02 0.000000000E+00 -6.001848984E+01 1.000013471E+00 6.516460329E-02 0.000000000E+00 1.109283548E-04 3.580193086E-11
 6.500003662E+02 0.000000000E+00 -5.969057083E+01 1.000013471E+00 6.516458094E-02 0.000000000E+00 1.108363649E-04 3.636073040E-11
 6.500003662E+02 0.000000000E+00 -5.936520386E+01 1.000013471E+00 6.516456604E-02 0.000000000E+00 1.107450953E-04 3.691518272E-11
 6.500003662E+02 0.000000000E+00 -5.904233551E+01 1.000013471E+00 6.516455114E-02 0.000000000E+00 1.106545242E-04 3.748378344E-11
 6.500003662E+02 0.000000000E+00 -5.872190475E+01 1.000013471E+00 6.516453624E-02 0.000000000E+00 1.105646370E-04 3.804809245E-11
 6.500003662E+02 0.000000000E+00 -5.840385818E+01 1.000013471E+00 6.516451389E-02 0.000000000E+00 1.104754119E-04 3.862644232E-11
 6.500003662E+02 0.000000000E+00 -5.808813858E+01 1.000013471E+00 6.516449898E-02 0.000000000E+00 1.103868417E-04 3.920055947E-11
 6.500003662E+02 0.000000000E+00 -5.777469254E+01 1.000013471E+00 6.516447663E-02 0.000000000E+00 1.102989045E-04 3.978859603E-11
 6.500003662E+02 0.000000000E+00 -5.746346664E+01 1.000013471E+00 6.516446173E-02 0.000000000E+00 1.102115930E-04 4.037246579E-11
 6.500003662E+02 0.000000000E+00 -5.715441132E+01 1.000013471E+00 6.516443938E-02 0.000000000E+00 1.101248854E-04 4.097014394E-11
 6.500003662E+02 0.000000000E+00 -5.684747696E+01 1.000013471E+00 6.516442448E-02 0.000000000E+00 1.100387672E-04 4.156371775E-11
 6.500003662E+02 0.000000000E+00 -5.654261398E+01 1.000013471E+00 6.516440213E-02 0.000000000E+00 1.099532383E-04 4.217099933E-11
 6.500003662E+02 0.000000000E+00 -5.623977280E+01 1.000013471E+00 6.516438723E-02 0.000000000E+00 1.098682696E-04 4.277425636E-11
 6.500003662E+02 0.000000000E+00 -5.593890762E+01 1.000013471E+00 6.516436487E-02 0.000000000E+00 1.097838540E-04 4.339115872E-11
 6.500003662E+02 0.000000000E+00 -5.563997650E+01 1.000013471E+00 6.516434997E-02 0.000000000E+00 1.096999767E-04 4.400409204E-11
 6.500003662E+02 0.000000000E+00 -5.534292984E+01 1.000013471E+00 6.516432762E-02 0.000000000E+00 1.096166307E-04 4.463065334E-11
 6.500003662E+02 0.000000000E+00 -5.504772949E+01 1.000013471E+00 6.516431272E-02 0.000000000E+00 1.095338012E-04 4.525332192E-11
 6.500003662E+02 0.000000000E+00 -5.475432587E+01 1.000013471E+00 6.516429037E-02 0.000000000E+00 1.094514737E-04 4.588966360E-11
 6.500003662E+02 0.000000000E+00 -5.446268463E+01 1.000013471E+00 6.516427547E-02 0.000000000E+00 1.093696410E-04 4.652218194E-11
 6.500003662E+02 0.000000000E+00 -5.417276001E+01 1.000013471E+00 6.516425312E-02 0.000000000E+00 1.092882812E-04 4.716849480E-11
 6.500003662E+02 0.000000000E+00 -5.388451385E+01 1.000013471E+00 6.516423076E-02 0.000000000E+00 1.092073944E-04 4.781106760E-11
 6.500003662E+02 0.000000000E+00 -5.359790802E+01 1.000013471E+00 6.516420841E-02 0.000000000E+00 1.091269660E-04 4.846766738E-11
 6.500003662E+02 0.000000000E+00 -5.331290436E+01 1.000013471E+00 6.516419351E-02 0.000000000E+00 1.090469887E-04 4.912059648E-11
 6.500003662E+02 0.000000000E+00 -5.302946472E+01 1.000013471E+00 6.516417116E-02 0.000000000E+00 1.089674479E-04 4.978791338E-11
 6.500003662E+02 0.000000000E+00 -5.274755478E+01 1.000013471E+00 6.516414881E-02 0.000000000E+00 1.088883364E-04 5.045162552E-11
 6.500003662E+02 0.000000000E+00 -5.246714020E+01 1.000013471E+00 6.516412646E-02 0.000000000E+00 1.088096396E-04 5.113024587E-11
 6.500003662E+02 0.000000000E+00 -5.218818283E+01 1.000013471E+00 6.516411155E-02 0.000000000E+00 1.087313503E-04 5.180534127E-11
 6.500003662E+02 0.000000000E+00 -5.191065598E+01 1.000013471E+00 6.516408920E-02 0.000000000E+00 1.086534612E-04 5.249603530E-11
 6.500003662E+02 0.000000000E+00 -5.163451767E+01 1.000013471E+00 6.516406685E-02 0.000000000E+00 1.085759650E-04 5.318327029E-11
 6.500003662E+02 0.000000000E+00 -5.135974121E+01 1.000013471E+00 6.516404450E-02 0.000000000E+00 1.084988471E-04 5.388703372E-11
 6.500003662E+02 0.000000000E+00 -5.108629227E+01 1.000013471E+00 6.516402215E-02 0.000000000E+00 1.084221003E-04 5.458739710E-11
 6.500003662E+02 0.000000000E+00 -5.081414413E+01 1.000013471E+00 6.516399980E-02 0.000000000E+00 1.083457173E-04 5.530545813E-11
 6.500003662E+02 0.000000000E+00 -5.054326248E+01 1.000013471E+00 6.516397744E-02 0.000000000E+00 1.082696836E-04 5.602017808E-11
 6.500003662E+02 0.000000000E+00 -5.027362442E+01 1.000013471E+00 6.516395509E-02 0.000000000E+00 1.081939990E-04 5.675405979E-11
 6.500003662E+02 0.000000000E+00 -5.000519180E+01 1.000013471E+00 6.516393274E-02 0.000000000E+00 1.081186565E-04 5.748466286E-11
 6.500003662E+02 0.000000000E+00 -4.973794556E+01 1.000013471E+00 6.516391039E-02 0.000000000E+00 1.080436414E-04 5.823622834E-11
 6.500003662E+02 0.000000000E+00 -4.947185516E+01 1.000013471E+00 6.516388804E-02 0.000000000E+00 1.079689464E-04 5.898454641E-11
 6.500003662E+02 0.000000000E+00 -4.920689011E+01 1.000013471E+00 6.516386569E-02 0.000000000E+00 1.078945716E-04 5.975603345E-11
 6.500003662E+02 0.000000000E+00 -4.894303131E+01 1.000013471E+00 6.516384333E-02 0.000000000E+00 1.078205023E-04 6.052429391E-11
 6.500003662E+02 0.000000000E+00 -4.868024826E+01 1.000013471E+00 6.516382098E-02 0.000000000E+00 1.077467386E-04 6.131833236E-11
 6.500003662E+02 0.000000000E+00 -4.841851807E+01 1.000013471E+00 6.516379863E-02 0.000000000E+00 1.076732660E-04 6.210919279E-11
 6.500003662E+02 0.000000000E+00 -4.815781784E+01 1.000013471E+00 6.516376883E-02 0.000000000E+00 1.076000772E-04 6.292893290E-11
 6.500003662E+02 0.000000000E+00 -4.789812088E+01 1.000013471E+00 6.516374648E-02 0.000000000E+00 1.075271721E-04 6.374552275E-11
 6.500003662E+02 0.000000000E+00 -4.763940430E+01 1.000013471E+00 6.516371667E-02 0.000000000E+00 1.074545435E-04 6.459464907E-11
 6.500003662E+02 0.000000000E+00 -4.738164520E+01 1.000013471E+00 6.516369432E-02 0.000000000E+00 1.073821768E-04 6.544063902E-11
 6.500003662E+02 0.000000000E+00 -4.712482452E+01 1.000013471E+00 6.516367197E-02 0.000000000E+00 1.073100721E-04 6.632343980E-11
 6.500003662E+02 0.000000000E+00 -4.686891937E+01 1.000013471E+00 6.516364962E-02 0.000000000E+00 1.072382292E-04 6.720309725E-11
 6.500003662E+02 0.000000000E+00 -4.661390686E+01 1.000013471E+00 6.516361982E-02 0.000000000E+00 1.071666338E-04 6.812454767E-11
 6.500003662E+02 0.000000000E+00 -4.635976791E+01 1.000013471E+00 6.516359746E-02 0.000000000E+00 1.070952785E-04 6.904284783E-11
 6.500003662E+02 0.000000000E+00 -4.610648346E+01 1.000013471E+00 6.516356766E-02 0.000000000E+00 1.070241633E-04 7.000867247E-11
 6.500003662E+02 0.000000000E+00 -4.585403061E+01 1.000013471E+00 6.516354531E-02 0.000000000E+00 1.069532809E-04 7.097132604E-11
 6.500003662E+02 0.000000000E+00 -4.560239029E+01 1.000013471E+00 6.516351551E-02 0.000000000E+00 1.068826241E-04 7.198811686E-11
 6.500003662E+02 0.000000000E+00 -4.535154724E+01 1.000013471E+00 6.516348571E-02 0.000000000E+00 1.068121855E-04 7.300168803E-11
 6.500003662E+02 0.000000000E+00 -4.510147858E+01 1.000013471E+00 6.516345590E-02 0.000000000E+00 1.067419653E-04 7.407695984E-11
 6.500003662E+02 0.000000000E+00 -4.485217285E+01 1.000013471E+00 6.516343355E-02 0.000000000E+00 1.066719633E-04 7.514895650E-11
 6.500003662E+02 0.000000000E+00 -4.460360718E+01 1.000013471E+00 6.516340375E-02 0.000000000E+00 1.066021650E-04 7.629124416E-11
 6.500003662E+02 0.000000000E+00 -4.435576248E+01 1.000013471E+00 6.516338140E-02 0.000000000E+00 1.065325632E-04 7.743021502E-11
 6.500003662E+02 0.000000000E+00 -4.410862732E+01 1.000013471E+00 6.516335160E-02 0.000000000E+00 1.064631651E-04 7.864924684E-11
 6.500003662E+02 0.000000000E+00 -4.386218643E+01 1.000013471E+00 6.516332179E-02 0.000000000E+00 1.063939562E-04 7.986485778E-11
 6.500003662E+02 0.000000000E+00 -4.361641693E+01 1.000013471E+00 6.516329199E-02 0.000000000E+00 1.063249365E-04 8.117159028E-11
 6.500003662E+02 0.000000000E+00 -4.337130737E+01 1.000013471E+00 6.516326219E-02 0.000000000E+00 1.062560987E-04 8.247481170E-11
 6.500003662E+02 0.000000000E+00 -4.312684250E+01 1.000013471E+00 6.516323239E-02 0.000000000E+00 1.061874427E-04 8.388159611E-11
 6.500003662E+02 0.000000000E+00 -4.288300705E+01 1.000013471E+00 6.516320258E-02 0.000000000E+00 1.061189614E-04 8.528476536E-11
 6.500003662E+02 0.000000000E+00 -4.263978958E+01 1.000013471E+00 6.516316533E-02 0.000000000E+00 1.060506474E-04 8.680548641E-11
 6.500003662E+02 0.000000000E+00 -4.239717102E+01 1.000013471E+00 6.516313553E-02 0.000000000E+00 1.059825081E-04 8.832246046E-11
 6.500003662E+02 0.000000000E+00 -4.215513611E+01 1.000013471E+00 6.516309828E-02 0.000000000E+00 1.059145288E-04 8.997268208E-11
 6.500003662E+02 0.000000000E+00 -4.191367722E+01 1.000013471E+00 6.516306847E-02 0.000000000E+00 1.058467096E-04 9.161897629E-11
 6.500003662E+02 0.000000000E+00 -4.167277908E+01 1.000013471E+00 6.516303122E-02 0.000000000E+00 1.057790432E-04 9.341603879E-11
 6.500003662E+02 0.000000000E+00 -4.143242645E+01 1.000013471E+00 6.516300142E-02 0.000000000E+00 1.057115296E-04 9.520902816E-11
 6.500003662E+02 0.000000000E+00 -4.119260788E+01 1.000013471E+00 6.516296417E-02 0.000000000E+00 1.056441615E-04 9.717230492E-11
 6.500003662E+02 0.000000000E+00 -4.095331192E+01 1.000013471E+00 6.516293436E-02 0.000000000E+00 1.055769389E-04 9.913130733E-11
 6.500003662E+02 0.000000000E+00 -4.071452713E+01 1.000013471E+00 6.516289711E-02 0.000000000E+00 1.055098619E-04 1.012822881E-10
 6.500003662E+02 0.000000000E+00 -4.047623825E+01 1.000013471E+00 6.516285986E-02 0.000000000E+00 1.054429231E-04 1.034288002E-10
 6.500003662E+02 0.000000000E+00 -4.023843765E+01 1.000013471E+00 6.516282260E-02 0.000000000E+00 1.053761152E-04 1.057913340E-10
 6.500003662E+02 0.000000000E+00 -4.000111008E+01 1.000013471E+00 6.516278535E-02 0.000000000E+00 1.053094384E-04 1.081491632E-10
 6.500003662E+02 0.000000000E+00 -3.976424789E+01 1.000013471E+00 6.516274810E-02 0.000000000E+00 1.052428925E-04 1.107496594E-10
 6.500003662E+02 0.000000000E+00 -3.952784348E+01 1.000013471E+00 6.516271085E-02 0.000000000E+00 1.051764702E-04 1.133451250E-10
 6.500003662E+02 0.000000000E+00 -3.929187775E+01 1.000013471E+00 6.516266614E-02 0.000000000E+00 1.051101717E-04 1.162126090E-10
 6.500003662E+02 0.000000000E+00 -3.905634308E+01 1.000013471E+00 6.516262889E-02 0.000000000E+00 1.050439896E-04 1.190748611E-10
 6.500003662E+02 0.000000000E+00 -3.882123566E+01 1.000013471E+00 6.516258419E-02 0.000000000E+00 1.049779239E-04 1.222413976E-10
 6.500003662E+02 0.000000000E+00 -3.858654022E+01 1.000013471E+00 6.516253948E-02 0.000000000E+00 1.049119746E-04 1.254023829E-10
 6.500003662E+02 0.000000000E+00 -3.835224533E+01 1.000013471E+00 6.516249478E-02 0.000000000E+00 1.048461345E-04 1.289031937E-10
 6.500003662E+02 0.000000000E+00 -3.811834717E+01 1.000013471E+00 6.516245008E-02 0.000000000E+00 1.047804108E-04 1.323980786E-10
 6.500003662E+02 0.000000000E+00 -3.788483429E+01 1.000013471E+00 6.516239792E-02 0.000000000E+00 1.047147816E-04 1.362716329E-10
 6.500003662E+02 0.000000000E+00 -3.765169525E+01 1.000013471E+00 6.516235322E-02 0.000000000E+00 1.046492616E-04 1.401389976E-10
 6.500003662E+02 0.000000000E+00 -3.741892242E+01 1.000013471E+00 6.516230106E-02 0.000000000E+00 1.045838362E-04 1.444275671E-10
 6.500003662E+02 0.000000000E+00 -3.718651199E+01 1.000013471E+00 6.516224891E-02 0.000000000E+00 1.045185127E-04 1.487094475E-10
 6.500003662E+02 0.000000000E+00 -3.695444870E+01 1.000013471E+00 6.516219676E-02 0.000000000E+00 1.044532837E-04 1.534589261E-10
 6.500003662E+02 0.000000000E+00 -3.672272873E+01 1.000013471E+00 6.516214460E-02 0.000000000E+00 1.043881493E-04 1.582013687E-10
 6.500003662E+02 0.000000000E+00 -3.649134445E+01 1.000013471E+00 6.516208500E-02 0.000000000E+00 1.043231023E-04 1.634617997E-10
 6.500003662E+02 0.000000000E+00 -3.626028442E+01 1.000013471E+00 6.516202539E-02 0.000000000E+00 1.042581498E-04 1.687148476E-10
 6.500003662E+02 0.000000000E+00 -3.602954483E+01 1.000013471E+00 6.516196579E-02 0.000000000E+00 1.041932774E-04 1.745406597E-10
 6.500003662E+02 0.000000000E+00 -3.579911804E+01 1.000013471E+00 6.516190618E-02 0.000000000E+00 1.041284922E-04 1.803585753E-10
 6.500003662E+02 0.000000000E+00 -3.556899261E+01 1.000013471E+00 6.516183913E-02 0.000000000E+00 1.040637871E-04 1.868086380E-10
 6.500003662E+02 0.000000000E+00 -3.533916473E+01 1.000013471E+00 6.516177207E-02 0.000000000E+00 1.039991621E-04 1.932503602E-10
 6.500003662E+02 0.000000000E+00 -3.510963058E+01 1.000013471E+00 6.516169757E-02 0.000000000E+00 1.039346098E-04 2.003882060E-10
 6.500003662E+02 0.000000000E+00 -3.488037491E+01 1.000013471E+00 6.516163051E-02 0.000000000E+00 1.038701375E-04 2.075174060E-10
 6.500003662E+02 0.000000000E+00 -3.465139771E+01 1.000013471E+00 6.516155601E-02 0.000000000E+00 1.038057380E-04 2.154133261E-10
 6.500003662E+02 0.000000000E+00 -3.442269135E+01 1.000013471E+00 6.516148150E-02 0.000000000E+00 1.037414113E-04 2.232999063E-10
 6.500003662E+02 0.000000000E+00 -3.419425201E+01 1.000013471E+00 6.516139954E-02 0.000000000E+00 1.036771500E-04 2.320281467E-10
 6.500003662E+02 0.000000000E+00 -3.396606827E+01 1.000013471E+00 6.516132504E-02 0.000000000E+00 1.036129615E-04 2.407466171E-10
 6.500003662E+02 0.000000000E+00 -3.373813629E+01 1.000013471E+00 6.516123563E-02 0.000000000E+00 1.035488312E-04 2.504291774E-10
 6.500003662E+02 0.000000000E+00 -3.351044846E+01 1.000013471E+00 6.516114622E-02 0.000000000E+00 1.034847737E-04 2.601013571E-10
 6.500003662E+02 0.000000000E+00 -3.328300095E+01 1.000013471E+00 6.516104937E-02 0.000000000E+00 1.034207671E-04 2.709034941E-10
 6.500003662E+02 0.000000000E+00 -3.305578995E+01 1.000013471E+00 6.516095996E-02 0.000000000E+00 1.033568333E-04 2.816944178E-10
 6.500003662E+02 0.000000000E+00 -3.282880783E+01 1.000013471E+00 6.516085565E-02 0.000000000E+00 1.032929504E-04 2.948660760E-10
 6.500003662E+02 0.000000000E+00 -3.260205078E+01 1.000013471E+00 6.516075879E-02 0.000000000E+00 1.032291257E-04 3.080246613E-10
 6.500003662E+02 0.000000000E+00 -3.237551117E+01 1.000013471E+00 6.516064703E-02 0.000000000E+00 1.031653665E-04 3.281283301E-10
 6.500003662E+02 0.000000000E+00 -3.214918137E+01 1.000013471E+00 6.516053528E-02 0.000000000E+00 1.031016654E-04 3.482133748E-10
 6.500003662E+02 0.000000000E+00 -3.192306328E+01 1.000013471E+00 6.516041607E-02 0.000000000E+00 1.030380154E-04 4.122897856E-10
 6.500003662E+02 0.000000000E+00 -3.169714928E+01 1.000013471E+00 6.516029686E-02 0.000000000E+00 1.029744162E-04 4.763083816E-10
 6.500003662E+02 0.000000000E+00 -3.147143173E+01 1.000013471E+00 6.516016275E-02 0.000000000E+00 1.029111299E-04 8.778340277E-10
 6.500003662E+02 0.000000000E+00 -3.124590874E+01 1.000013471E+00 6.516002864E-02 0.000000000E+00 1.028478946E-04 1.279013562E-09
 6.500003662E+02 0.000000000E+00 -3.102057648E+01 1.000013471E+00 6.515985727E-02 0.000000000E+00 1.027858743E-04 -1.014716089E-09
 6.500003662E+02 0.000000000E+00 -3.079542732E+01 1.000013471E+00 6.515969336E-02 0.000000000E+00 1.027238977E-04 -3.306581897E-09