TITLE     = "Plot3D DataSet"
VARIABLES = "X"
"Y"
"RHO-U"
DATASETAUXDATA Common.AngleOfAttack="0"
DATASETAUXDATA Common.DensityVar="4"
DATASETAUXDATA Common.ReferenceMachNumber="0.121108"
DATASETAUXDATA Common.ReynoldsNumber="2900"
DATASETAUXDATA Common.SpeedOfSound="1.0"
DATASETAUXDATA Common.StagnationEnergyVar="7"
DATASETAUXDATA Common.UVar="5"
DATASETAUXDATA Common.VectorVarsAreVelocity="FALSE"
DATASETAUXDATA Common.VVar="6"
ZONE T="x = 200"
 STRANDID=0, SOLUTIONTIME=0
 I=735, J=1, K=1, ZONETYPE=Ordered
 DATAPACKING=POINT
 DT=(SINGLE SINGLE SINGLE )
 2.000005798E+02 -1.466365967E+02 3.170532586E-11
 2.000005798E+02 -1.437562866E+02 2.745749288E-11
 2.000005798E+02 -1.409408569E+02 2.323475440E-11
 2.000005798E+02 -1.381888275E+02 1.328812754E-11
 2.000005798E+02 -1.354987183E+02 3.822351723E-12
 2.000005798E+02 -1.328691101E+02 1.698166434E-11
 2.000005798E+02 -1.302985992E+02 2.973365998E-11
 2.000005798E+02 -1.277858353E+02 3.285181155E-11
 2.000005798E+02 -1.253294830E+02 3.588516290E-11
 2.000005798E+02 -1.229282455E+02 3.773985985E-11
 2.000005798E+02 -1.205808334E+02 3.955599737E-11
 2.000005798E+02 -1.182860260E+02 4.179493557E-11
 2.000005798E+02 -1.160426025E+02 4.397923345E-11
 2.000005798E+02 -1.138493729E+02 4.590770819E-11
 2.000005798E+02 -1.117051849E+02 4.778619861E-11
 2.000005798E+02 -1.096089096E+02 4.918364674E-11
 2.000005798E+02 -1.075594330E+02 5.054361096E-11
 2.000005798E+02 -1.055556870E+02 5.146254950E-11
 2.000005798E+02 -1.035966110E+02 5.235526249E-11
 2.000005798E+02 -1.016811752E+02 5.284542942E-11
 2.000005798E+02 -9.980837250E+01 5.331929342E-11
 2.000005798E+02 -9.797721863E+01 5.341086601E-11
 2.000005798E+02 -9.618675995E+01 5.349533316E-11
 2.000005798E+02 -9.443605042E+01 5.321582758E-11
 2.000005798E+02 -9.272417450E+01 5.293779651E-11
 2.000005798E+02 -9.105023956E+01 5.231684530E-11
 2.000005798E+02 -8.941336823E+01 5.170528589E-11
 2.000005798E+02 -8.781270599E+01 5.077339243E-11
 2.000005798E+02 -8.624742126E+01 4.985810029E-11
 2.000005798E+02 -8.471669006E+01 4.864553205E-11
 2.000005798E+02 -8.321972656E+01 4.745606685E-11
 2.000005798E+02 -8.175573730E+01 4.599224820E-11
 2.000005798E+02 -8.032398224E+01 4.455735780E-11
 2.000005798E+02 -7.892369843E+01 4.287054045E-11
 2.000005798E+02 -7.755416870E+01 4.121779654E-11
 2.000005798E+02 -7.621468353E+01 3.933474726E-11
 2.000005798E+02 -7.490454865E+01 3.749028865E-11
 2.000005798E+02 -7.362309265E+01 3.543609850E-11
 2.000005798E+02 -7.236964417E+01 3.342442642E-11
 2.000005798E+02 -7.114356995E+01 3.122238579E-11
 2.000005798E+02 -6.994422150E+01 2.906623206E-11
 2.000005798E+02 -6.877099609E+01 2.673774049E-11
 2.000005798E+02 -6.762329102E+01 2.445803456E-11
 2.000005798E+02 -6.650051117E+01 2.202257647E-11
 2.000005798E+02 -6.540208435E+01 1.963830314E-11
 2.000005798E+02 -6.432745361E+01 1.711345475E-11
 2.000005798E+02 -6.327605820E+01 1.464175656E-11
 2.000005798E+02 -6.224737549E+01 1.204315467E-11
 2.000005798E+02 -6.124087143E+01 9.499316264E-12
 2.000005798E+02 -6.025604248E+01 6.840784449E-12
 2.000005798E+02 -5.929238510E+01 4.238301550E-12
 2.000005798E+02 -5.834941101E+01 1.531874454E-12
 2.000005798E+02 -5.742664337E+01 -1.117522524E-12
 2.000005798E+02 -5.652361679E+01 -3.861486218E-12
 2.000005798E+02 -5.563987350E+01 -6.547700750E-12
 2.000005798E+02 -5.477497101E+01 -9.320482754E-12
 2.000005798E+02 -5.392847824E+01 -1.203498932E-11
 2.000005798E+02 -5.309996414E+01 -1.482936170E-11
 2.000005798E+02 -5.228901672E+01 -1.756514899E-11
 2.000005798E+02 -5.149523163E+01 -2.037534377E-11
 2.000005798E+02 -5.071820831E+01 -2.312679215E-11
 2.000005798E+02 -4.995756912E+01 -2.594838060E-11
 2.000005798E+02 -4.921292877E+01 -2.871116539E-11
 2.000005798E+02 -4.848392487E+01 -3.154097469E-11
 2.000005798E+02 -4.777018738E+01 -3.431202544E-11
 2.000005798E+02 -4.707137299E+01 -3.714807628E-11
 2.000005798E+02 -4.638713455E+01 -3.992545183E-11
 2.000005798E+02 -4.571713257E+01 -4.276685950E-11
 2.000005798E+02 -4.506104660E+01 -4.554971678E-11
 2.000005798E+02 -4.441854477E+01 -4.839661311E-11
 2.000005798E+02 -4.378932571E+01 -5.118511864E-11
 2.000005798E+02 -4.317307281E+01 -5.403859651E-11
 2.000005798E+02 -4.256949234E+01 -5.683387441E-11
 2.000005798E+02 -4.197829056E+01 -5.969594957E-11
 2.000005798E+02 -4.139918518E+01 -6.249995660E-11
 2.000005798E+02 -4.083189011E+01 -6.537350522E-11
 2.000005798E+02 -4.027614212E+01 -6.818909326E-11
 2.000005798E+02 -3.973166656E+01 -7.107777561E-11
 2.000005798E+02 -3.919820786E+01 -7.390855983E-11
 2.000005798E+02 -3.867551422E+01 -7.681680986E-11
 2.000005798E+02 -3.816333008E+01 -7.966718257E-11
 2.000005798E+02 -3.766141891E+01 -8.260018364E-11
 2.000005798E+02 -3.716954422E+01 -8.547518249E-11
 2.000005798E+02 -3.668746948E+01 -8.843881877E-11
 2.000005798E+02 -3.621497345E+01 -9.134427936E-11
 2.000005798E+02 -3.575183105E+01 -9.434513587E-11
 2.000005798E+02 -3.529782867E+01 -9.728754607E-11
 2.000005798E+02 -3.485276031E+01 -1.003330266E-10
 2.000005798E+02 -3.441641235E+01 -1.033196792E-10
 2.000005798E+02 -3.398858643E+01 -1.064175484E-10
 2.000005798E+02 -3.356908417E+01 -1.094560692E-10
 2.000005798E+02 -3.315771866E+01 -1.126147300E-10
 2.000005798E+02 -3.275429916E+01 -1.157133764E-10
 2.000005798E+02 -3.235864258E+01 -1.189418564E-10
 2.000005798E+02 -3.197056961E+01 -1.221095447E-10
 2.000005798E+02 -3.158990479E+01 -1.254175375E-10
 2.000005798E+02 -3.121647835E+01 -1.286637741E-10
 2.000005798E+02 -3.085012245E+01 -1.320614867E-10
 2.000005798E+02 -3.049067497E+01 -1.353963608E-10
 2.000005798E+02 -3.013797760E+01 -1.388945348E-10
 2.000005798E+02 -2.979187202E+01 -1.423286627E-10
 2.000005798E+02 -2.945220757E+01 -1.459386639E-10
 2.000005798E+02 -2.911883545E+01 -1.494832036E-10
 2.000005798E+02 -2.879160881E+01 -1.532168697E-10
 2.000005798E+02 -2.847039032E+01 -1.568835062E-10
 2.000005798E+02 -2.815503693E+01 -1.607531469E-10
 2.000005798E+02 -2.784541702E+01 -1.645540371E-10
 2.000005798E+02 -2.754139519E+01 -1.685724615E-10
 2.000005798E+02 -2.724284363E+01 -1.725202897E-10
 2.000005798E+02 -2.694963646E+01 -1.767007790E-10
 2.000005798E+02 -2.666165161E+01 -1.808085903E-10
 2.000005798E+02 -2.637876511E+01 -1.851648557E-10
 2.000005798E+02 -2.610086250E+01 -1.894462365E-10
 2.000005798E+02 -2.582782745E+01 -1.939923222E-10
 2.000005798E+02 -2.555954742E+01 -1.984612058E-10
 2.000005798E+02 -2.529591560E+01 -2.032116003E-10
 2.000005798E+02 -2.503681946E+01 -2.078823086E-10
 2.000005798E+02 -2.478215981E+01 -2.128518334E-10
 2.000005798E+02 -2.453182983E+01 -2.177389935E-10
 2.000005798E+02 -2.428573418E+01 -2.229427754E-10
 2.000005798E+02 -2.404377174E+01 -2.280613753E-10
 2.000005798E+02 -2.380584717E+01 -2.335148463E-10
 2.000005798E+02 -2.357186890E+01 -2.388801934E-10
 2.000005798E+02 -2.334174538E+01 -2.445990077E-10
 2.000005798E+02 -2.311538696E+01 -2.502266450E-10
 2.000005798E+02 -2.289270973E+01 -2.562266788E-10
 2.000005798E+02 -2.267362404E+01 -2.621323714E-10
 2.000005798E+02 -2.245805168E+01 -2.684298062E-10
 2.000005798E+02 -2.224590683E+01 -2.746295691E-10
 2.000005798E+02 -2.203711510E+01 -2.812406696E-10
 2.000005798E+02 -2.183159637E+01 -2.877506844E-10
 2.000005798E+02 -2.162927628E+01 -2.946919375E-10
 2.000005798E+02 -2.143008041E+01 -3.015286076E-10
 2.000005798E+02 -2.123393631E+01 -3.088167222E-10
 2.000005798E+02 -2.104077530E+01 -3.159966178E-10
 2.000005798E+02 -2.085052681E+01 -3.236483026E-10
 2.000005798E+02 -2.066312408E+01 -3.311882157E-10
 2.000005798E+02 -2.047850037E+01 -3.392205128E-10
 2.000005798E+02 -2.029659462E+01 -3.471372634E-10
 2.000005798E+02 -2.011734200E+01 -3.555671313E-10
 2.000005798E+02 -1.994068146E+01 -3.638778445E-10
 2.000005798E+02 -1.976655388E+01 -3.727225750E-10
 2.000005798E+02 -1.959489822E+01 -3.814445149E-10
 2.000005798E+02 -1.942566109E+01 -3.907216217E-10
 2.000005798E+02 -1.925878525E+01 -3.998720521E-10
 2.000005798E+02 -1.909421539E+01 -4.095990769E-10
 2.000005798E+02 -1.893190002E+01 -4.191956504E-10
 2.000005798E+02 -1.877178574E+01 -4.293903566E-10
 2.000005798E+02 -1.861382103E+01 -4.394509479E-10
 2.000005798E+02 -1.845795822E+01 -4.501313489E-10
 2.000005798E+02 -1.830414772E+01 -4.606738879E-10
 2.000005798E+02 -1.815234184E+01 -4.718584967E-10
 2.000005798E+02 -1.800249481E+01 -4.829015521E-10
 2.000005798E+02 -1.785456276E+01 -4.946088539E-10
 2.000005798E+02 -1.770849800E+01 -5.061711605E-10
 2.000005798E+02 -1.756426048E+01 -5.184209728E-10
 2.000005798E+02 -1.742180824E+01 -5.305219597E-10
 2.000005798E+02 -1.728109741E+01 -5.433342665E-10
 2.000005798E+02 -1.714209175E+01 -5.559940286E-10
 2.000005798E+02 -1.700474739E+01 -5.693899796E-10
 2.000005798E+02 -1.686902809E+01 -5.826301108E-10
 2.000005798E+02 -1.673489571E+01 -5.966321326E-10
 2.000005798E+02 -1.660231590E+01 -6.104747263E-10
 2.000005798E+02 -1.647125053E+01 -6.251066886E-10
 2.000005798E+02 -1.634166527E+01 -6.395761143E-10
 2.000005798E+02 -1.621352577E+01 -6.548647735E-10
 2.000005798E+02 -1.608679771E+01 -6.699877320E-10
 2.000005798E+02 -1.596145058E+01 -6.859635637E-10
 2.000005798E+02 -1.583745193E+01 -7.017701975E-10
 2.000005798E+02 -1.571476936E+01 -7.184690620E-10
 2.000005798E+02 -1.559337330E+01 -7.349955644E-10
 2.000005798E+02 -1.547323322E+01 -7.524615375E-10
 2.000005798E+02 -1.535432148E+01 -7.697517068E-10
 2.000005798E+02 -1.523660946E+01 -7.880395780E-10
 2.000005798E+02 -1.512006855E+01 -8.061484258E-10
 2.000005798E+02 -1.500467205E+01 -8.253291384E-10
 2.000005798E+02 -1.489039326E+01 -8.443271082E-10
 2.000005798E+02 -1.477720737E+01 -8.644942540E-10
 2.000005798E+02 -1.466508770E+01 -8.844747712E-10
 2.000005798E+02 -1.455401039E+01 -9.057589123E-10
 2.000005798E+02 -1.444395161E+01 -9.268517065E-10
 2.000005798E+02 -1.433488750E+01 -9.494453002E-10
 2.000005798E+02 -1.422679424E+01 -9.718423843E-10
 2.000005798E+02 -1.411965084E+01 -9.960702263E-10
 2.000005798E+02 -1.401343441E+01 -1.020094897E-09
 2.000005798E+02 -1.390812302E+01 -1.046525644E-09
 2.000005798E+02 -1.380369759E+01 -1.072744116E-09
 2.000005798E+02 -1.370013523E+01 -1.102519520E-09
 2.000005798E+02 -1.359741783E+01 -1.132070659E-09
 2.000005798E+02 -1.349552441E+01 -1.167869801E-09
 2.000005798E+02 -1.339443684E+01 -1.203422251E-09
 2.000005798E+02 -1.329413700E+01 -1.250864079E-09
 2.000005798E+02 -1.319460487E+01 -1.298032015E-09
 2.000005798E+02 -1.309582424E+01 -1.373187675E-09
 2.000005798E+02 -1.299777603E+01 -1.448009601E-09
 2.000005798E+02 -1.290044498E+01 -1.593480459E-09
 2.000005798E+02 -1.280381393E+01 -1.738488686E-09
 2.000005798E+02 -1.270786572E+01 -2.069754590E-09
 2.000005798E+02 -1.261258602E+01 -2.400894150E-09
 2.000005798E+02 -1.251795769E+01 -3.427423234E-09
 2.000005798E+02 -1.242396736E+01 -4.452805680E-09
 2.000005798E+02 -1.233059883E+01 -7.443436090E-09
 2.000005798E+02 -1.223783779E+01 -1.040615061E-08
 2.000005798E+02 -1.214566994E+01 -1.114983750E-08
 2.000005798E+02 -1.205408287E+01 -1.179120002E-08
 2.000005798E+02 -1.196306229E+01 2.145024780E-08
 2.000005798E+02 -1.187259388E+01 5.466442587E-08
 2.000005798E+02 -1.178266621E+01 1.608330962E-07
 2.000005798E+02 -1.169326687E+01 2.664430951E-07
 2.000005798E+02 -1.160438251E+01 4.238459894E-07
 2.000005798E+02 -1.151600075E+01 5.801834959E-07
 2.000005798E+02 -1.142811108E+01 7.105068107E-07
 2.000005798E+02 -1.134070206E+01 8.396642670E-07
 2.000005798E+02 -1.125376129E+01 8.395488749E-07
 2.000005798E+02 -1.116727924E+01 8.387114576E-07
 2.000005798E+02 -1.108124352E+01 5.963739795E-07
 2.000005798E+02 -1.099564457E+01 3.542988622E-07
 2.000005798E+02 -1.091047287E+01 -2.402844927E-07
 2.000005798E+02 -1.082571697E+01 -8.331307413E-07
 2.000005798E+02 -1.074136829E+01 -1.881619937E-06
 2.000005798E+02 -1.065741730E+01 -2.926474963E-06
 2.000005798E+02 -1.057385349E+01 -4.518541118E-06
 2.000005798E+02 -1.049066830E+01 -6.104809927E-06
 2.000005798E+02 -1.040785313E+01 -8.316655112E-06
 2.000005798E+02 -1.032539940E+01 -1.052032167E-05
 2.000005798E+02 -1.024329758E+01 -1.341458483E-05
 2.000005798E+02 -1.016154003E+01 -1.629821782E-05
 2.000005798E+02 -1.008011913E+01 -1.992450234E-05
 2.000005798E+02 -9.999026299E+00 -2.353767741E-05
 2.000005798E+02 -9.918253899E+00 -2.793363819E-05
 2.000005798E+02 -9.837794304E+00 -3.231404116E-05
 2.000005798E+02 -9.757639885E+00 -3.750653923E-05
 2.000005798E+02 -9.677783012E+00 -4.268118209E-05
 2.000005798E+02 -9.598217964E+00 -4.868741962E-05
 2.000005798E+02 -9.518936157E+00 -5.467363371E-05
 2.000005798E+02 -9.439931870E+00 -6.150257832E-05
 2.000005798E+02 -9.361198425E+00 -6.830940401E-05
 2.000005798E+02 -9.282728195E+00 -7.596271462E-05
 2.000005798E+02 -9.204516411E+00 -8.359202911E-05
 2.000005798E+02 -9.126556396E+00 -9.206497634E-05
 2.000005798E+02 -9.048841476E+00 -1.005124068E-04
 2.000005798E+02 -8.971365929E+00 -1.097953427E-04
 2.000005798E+02 -8.894124031E+00 -1.190513212E-04
 2.000005798E+02 -8.817110062E+00 -1.291299413E-04
 2.000005798E+02 -8.740319252E+00 -1.391802944E-04
 2.000005798E+02 -8.663744926E+00 -1.500366780E-04
 2.000005798E+02 -8.587382317E+00 -1.608638850E-04
 2.000005798E+02 -8.511225700E+00 -1.724770409E-04
 2.000005798E+02 -8.435271263E+00 -1.840601471E-04
 2.000005798E+02 -8.359512329E+00 -1.964066178E-04
 2.000005798E+02 -8.283946037E+00 -2.087223838E-04
 2.000005798E+02 -8.208565712E+00 -2.217765432E-04
 2.000005798E+02 -8.133367538E+00 -2.347997797E-04
 2.000005798E+02 -8.058346748E+00 -2.485345467E-04
 2.000005798E+02 -7.983499527E+00 -2.622380853E-04
 2.000005798E+02 -7.908820629E+00 -2.766251855E-04
 2.000005798E+02 -7.834306240E+00 -2.909810282E-04
 2.000005798E+02 -7.759952068E+00 -3.059910086E-04
 2.000005798E+02 -7.685753822E+00 -3.209698771E-04
 2.000005798E+02 -7.611707687E+00 -3.365727898E-04
 2.000005798E+02 -7.537809849E+00 -3.521447652E-04
 2.000005798E+02 -7.464056015E+00 -3.683101677E-04
 2.000005798E+02 -7.390442371E+00 -3.844450985E-04
 2.000005798E+02 -7.316966057E+00 -4.011420242E-04
 2.000005798E+02 -7.243622303E+00 -4.178090603E-04
 2.000005798E+02 -7.170408249E+00 -4.350067466E-04
 2.000005798E+02 -7.097320557E+00 -4.521748924E-04
 2.000005798E+02 -7.024354935E+00 -4.698423727E-04
 2.000005798E+02 -6.951508999E+00 -4.874809820E-04
 2.000005798E+02 -6.878778934E+00 -5.055871443E-04
 2.000005798E+02 -6.806161880E+00 -5.236652214E-04
 2.000005798E+02 -6.733654022E+00 -5.421793903E-04
 2.000005798E+02 -6.661252975E+00 -5.606663181E-04
 2.000005798E+02 -6.588954926E+00 -5.795580219E-04
 2.000005798E+02 -6.516757965E+00 -5.984232994E-04
 2.000005798E+02 -6.444657803E+00 -6.176621537E-04
 2.000005798E+02 -6.372652531E+00 -6.368756876E-04
 2.000005798E+02 -6.300739288E+00 -6.564317737E-04
 2.000005798E+02 -6.228914738E+00 -6.759635871E-04
 2.000005798E+02 -6.157176971E+00 -6.958073354E-04
 2.000005798E+02 -6.085522175E+00 -7.156280335E-04
 2.000005798E+02 -6.013948917E+00 -7.357302238E-04
 2.000005798E+02 -5.942453384E+00 -7.558105863E-04
 2.000005798E+02 -5.871034145E+00 -7.761425804E-04
 2.000005798E+02 -5.799687862E+00 -7.964536780E-04
 2.000005798E+02 -5.728412628E+00 -8.169871289E-04
 2.000005798E+02 -5.657205582E+00 -8.375007892E-04
 2.000005798E+02 -5.586064816E+00 -8.582076407E-04
 2.000005798E+02 -5.514987469E+00 -8.788958658E-04
 2.000005798E+02 -5.443971157E+00 -8.997488185E-04
 2.000005798E+02 -5.373014450E+00 -9.205840761E-04
 2.000005798E+02 -5.302114010E+00 -9.415559471E-04
 2.000005798E+02 -5.231267929E+00 -9.625115199E-04
 2.000005798E+02 -5.160474777E+00 -9.835754754E-04
 2.000005798E+02 -5.089731216E+00 -1.004624413E-03
 2.000005798E+02 -5.019035816E+00 -1.025754609E-03
 2.000005798E+02 -4.948386192E+00 -1.046870952E-03
 2.000005798E+02 -4.877780437E+00 -1.068041543E-03
 2.000005798E+02 -4.807216167E+00 -1.089199563E-03
 2.000005798E+02 -4.736691952E+00 -1.110384939E-03
 2.000005798E+02 -4.666204929E+00 -1.131559140E-03
 2.000005798E+02 -4.595753670E+00 -1.152734854E-03
 2.000005798E+02 -4.525336266E+00 -1.173900208E-03
 2.000005798E+02 -4.454950333E+00 -1.195041463E-03
 2.000005798E+02 -4.384593964E+00 -1.216173754E-03
 2.000005798E+02 -4.314265728E+00 -1.237256452E-03
 2.000005798E+02 -4.243963242E+00 -1.258331351E-03
 2.000005798E+02 -4.173684597E+00 -1.279331977E-03
 2.000005798E+02 -4.103427887E+00 -1.300325850E-03
 2.000005798E+02 -4.033191681E+00 -1.321220887E-03
 2.000005798E+02 -3.962973595E+00 -1.342110452E-03
 2.000005798E+02 -3.892771959E+00 -1.362877083E-03
 2.000005798E+02 -3.822585106E+00 -1.383639174E-03
 2.000005798E+02 -3.752410889E+00 -1.404254697E-03
 2.000005798E+02 -3.682247400E+00 -1.424866961E-03
 2.000005798E+02 -3.612093210E+00 -1.445309259E-03
 2.000005798E+02 -3.541946411E+00 -1.465749228E-03
 2.000005798E+02 -3.471804857E+00 -1.485996414E-03
 2.000005798E+02 -3.401666880E+00 -1.506242435E-03
 2.000005798E+02 -3.331530809E+00 -1.526273089E-03
 2.000005798E+02 -3.261394739E+00 -1.546303509E-03
 2.000005798E+02 -3.191314459E+00 -1.566080842E-03
 2.000005798E+02 -3.121287346E+00 -1.585842925E-03
 2.000005798E+02 -3.051311255E+00 -1.605330384E-03
 2.000005798E+02 -2.981384039E+00 -1.624803990E-03
 2.000005798E+02 -2.911503315E+00 -1.643982599E-03
 2.000005798E+02 -2.841667652E+00 -1.663148636E-03
 2.000005798E+02 -2.771874666E+00 -1.682000351E-03
 2.000005798E+02 -2.702122688E+00 -1.700840774E-03
 2.000005798E+02 -2.632410049E+00 -1.719347551E-03
 2.000005798E+02 -2.562734842E+00 -1.737844083E-03
 2.000005798E+02 -2.493095636E+00 -1.755987993E-03
 2.000005798E+02 -2.423491001E+00 -1.774122706E-03
 2.000005798E+02 -2.353919268E+00 -1.791886054E-03
 2.000005798E+02 -2.284379005E+00 -1.809641253E-03
 2.000005798E+02 -2.214868784E+00 -1.827007043E-03
 2.000005798E+02 -2.145387411E+00 -1.844365499E-03
 2.000005798E+02 -2.075933456E+00 -1.861316734E-03
 2.000005798E+02 -2.006505728E+00 -1.878261333E-03
 2.000005798E+02 -1.937103152E+00 -1.894781482E-03
 2.000005798E+02 -1.867724299E+00 -1.911295811E-03
 2.000005798E+02 -1.798368335E+00 -1.927368576E-03
 2.000005798E+02 -1.729033947E+00 -1.943436218E-03
 2.000005798E+02 -1.659720063E+00 -1.959045883E-03
 2.000005798E+02 -1.590425849E+00 -1.974651124E-03
 2.000005798E+02 -1.521150112E+00 -1.989782322E-03
 2.000005798E+02 -1.451891899E+00 -2.004909562E-03
 2.000005798E+02 -1.382650375E+00 -2.019546926E-03
 2.000005798E+02 -1.313424468E+00 -2.034181030E-03
 2.000005798E+02 -1.244213462E+00 -2.048310358E-03
 2.000005798E+02 -1.175016165E+00 -2.062436659E-03
 2.000005798E+02 -1.105831981E+00 -2.076043282E-03
 2.000005798E+02 -1.036659956E+00 -2.089647576E-03
 2.000005798E+02 -9.674993157E-01 -2.102717757E-03
 2.000005798E+02 -8.983491063E-01 -2.115786076E-03
 2.000005798E+02 -8.292086124E-01 -2.128306543E-03
 2.000005798E+02 -7.600769997E-01 -2.140825382E-03
 2.000005798E+02 -6.909535527E-01 -2.152782865E-03
 2.000005798E+02 -6.218374372E-01 -2.164739184E-03
 2.000005798E+02 -5.527279377E-01 -2.176121576E-03
 2.000005798E+02 -4.836242497E-01 -2.187502803E-03
 2.000005798E+02 -4.145256579E-01 -2.198297763E-03
 2.000005798E+02 -3.454314172E-01 -2.209091792E-03
 2.000005798E+02 -2.763408124E-01 -2.219287446E-03
 2.000005798E+02 -2.072530836E-01 -2.229482867E-03
 2.000005798E+02 -1.381675154E-01 -2.239068272E-03
 2.000005798E+02 -6.908340007E-02 -2.248653211E-03
 2.000005798E+02 1.136868377E-13 -2.257617656E-03
 2.000005798E+02 6.908340007E-02 -2.266581869E-03
 2.000005798E+02 1.381675154E-01 -2.274914877E-03
 2.000005798E+02 2.072530836E-01 -2.283247886E-03
 2.000005798E+02 2.763408124E-01 -2.290939679E-03
 2.000005798E+02 3.454314172E-01 -2.298631705E-03
 2.000005798E+02 4.145256579E-01 -2.305673202E-03
 2.000005798E+02 4.836242497E-01 -2.312715165E-03
 2.000005798E+02 5.527279377E-01 -2.319097286E-03
 2.000005798E+02 6.218374372E-01 -2.325480105E-03
 2.000005798E+02 6.909535527E-01 -2.331194701E-03
 2.000005798E+02 7.600769997E-01 -2.336909994E-03
 2.000005798E+02 8.292086124E-01 -2.341949381E-03
 2.000005798E+02 8.983491063E-01 -2.346989466E-03
 2.000005798E+02 9.674993157E-01 -2.351346426E-03
 2.000005798E+02 1.036659956E+00 -2.355703851E-03
 2.000005798E+02 1.105831981E+00 -2.359371167E-03
 2.000005798E+02 1.175016165E+00 -2.363039413E-03
 2.000005798E+02 1.244213462E+00 -2.366011264E-03
 2.000005798E+02 1.313424468E+00 -2.368983813E-03
 2.000005798E+02 1.382650375E+00 -2.371254610E-03
 2.000005798E+02 1.451891899E+00 -2.373525640E-03
 2.000005798E+02 1.521150112E+00 -2.375090029E-03
 2.000005798E+02 1.590425849E+00 -2.376654651E-03
 2.000005798E+02 1.659720063E+00 -2.377507742E-03
 2.000005798E+02 1.729033947E+00 -2.378361067E-03
 2.000005798E+02 1.798368335E+00 -2.378499135E-03
 2.000005798E+02 1.867724299E+00 -2.378637204E-03
 2.000005798E+02 1.937103152E+00 -2.378056524E-03
 2.000005798E+02 2.006505728E+00 -2.377475845E-03
 2.000005798E+02 2.075933456E+00 -2.376173390E-03
 2.000005798E+02 2.145387411E+00 -2.374870470E-03
 2.000005798E+02 2.214868784E+00 -2.372844145E-03
 2.000005798E+02 2.284379005E+00 -2.370816655E-03
 2.000005798E+02 2.353919268E+00 -2.368064132E-03
 2.000005798E+02 2.423491001E+00 -2.365310211E-03
 2.000005798E+02 2.493095636E+00 -2.361830324E-03
 2.000005798E+02 2.562734842E+00 -2.358348342E-03
 2.000005798E+02 2.632410049E+00 -2.354140161E-03
 2.000005798E+02 2.702122688E+00 -2.349929186E-03
 2.000005798E+02 2.771874666E+00 -2.344992477E-03
 2.000005798E+02 2.841667652E+00 -2.340052510E-03
 2.000005798E+02 2.911503315E+00 -2.334387042E-03
 2.000005798E+02 2.981384039E+00 -2.328717848E-03
 2.000005798E+02 3.051311255E+00 -2.322322922E-03
 2.000005798E+02 3.121287346E+00 -2.315923572E-03
 2.000005798E+02 3.191314459E+00 -2.308804076E-03
 2.000005798E+02 3.261394739E+00 -2.301678993E-03
 2.000005798E+02 3.331530809E+00 -2.293837257E-03
 2.000005798E+02 3.401666880E+00 -2.285995288E-03
 2.000005798E+02 3.471804857E+00 -2.277443884E-03
 2.000005798E+02 3.541946411E+00 -2.268892014E-03
 2.000005798E+02 3.612093210E+00 -2.259638393E-03
 2.000005798E+02 3.682247400E+00 -2.250383608E-03
 2.000005798E+02 3.752410889E+00 -2.240435919E-03
 2.000005798E+02 3.822585106E+00 -2.230486833E-03
 2.000005798E+02 3.892771959E+00 -2.219852526E-03
 2.000005798E+02 3.962973595E+00 -2.209215891E-03
 2.000005798E+02 4.033191681E+00 -2.197903814E-03
 2.000005798E+02 4.103427887E+00 -2.186588477E-03
 2.000005798E+02 4.173684597E+00 -2.174607012E-03
 2.000005798E+02 4.243963242E+00 -2.162621822E-03
 2.000005798E+02 4.314265728E+00 -2.149980981E-03
 2.000005798E+02 4.384593964E+00 -2.137335483E-03
 2.000005798E+02 4.454950333E+00 -2.124045277E-03
 2.000005798E+02 4.525336266E+00 -2.110749483E-03
 2.000005798E+02 4.595753670E+00 -2.096821321E-03
 2.000005798E+02 4.666204929E+00 -2.082886407E-03
 2.000005798E+02 4.736691952E+00 -2.068331698E-03
 2.000005798E+02 4.807216167E+00 -2.053769305E-03
 2.000005798E+02 4.877780437E+00 -2.038600622E-03
 2.000005798E+02 4.948386192E+00 -2.023422858E-03
 2.000005798E+02 5.019035816E+00 -2.007653238E-03
 2.000005798E+02 5.089731216E+00 -1.991873374E-03
 2.000005798E+02 5.160474777E+00 -1.975517021E-03
 2.000005798E+02 5.231267929E+00 -1.959149260E-03
 2.000005798E+02 5.302114010E+00 -1.942220610E-03
 2.000005798E+02 5.373014450E+00 -1.925278804E-03
 2.000005798E+02 5.443971157E+00 -1.907793805E-03
 2.000005798E+02 5.514987469E+00 -1.890293788E-03
 2.000005798E+02 5.586064816E+00 -1.872268389E-03
 2.000005798E+02 5.657205582E+00 -1.854226692E-03
 2.000005798E+02 5.728412628E+00 -1.835678122E-03
 2.000005798E+02 5.799687862E+00 -1.817111392E-03
 2.000005798E+02 5.871034145E+00 -1.798057696E-03
 2.000005798E+02 5.942453384E+00 -1.778984326E-03
 2.000005798E+02 6.013948917E+00 -1.759444247E-03
 2.000005798E+02 6.085522175E+00 -1.739882631E-03
 2.000005798E+02 6.157176971E+00 -1.719876193E-03
 2.000005798E+02 6.228914738E+00 -1.699846238E-03
 2.000005798E+02 6.300739288E+00 -1.679394045E-03
 2.000005798E+02 6.372652531E+00 -1.658916357E-03
 2.000005798E+02 6.444657803E+00 -1.638040179E-03
 2.000005798E+02 6.516757965E+00 -1.617136295E-03
 2.000005798E+02 6.588954926E+00 -1.595858717E-03
 2.000005798E+02 6.661252975E+00 -1.574551221E-03
 2.000005798E+02 6.733654022E+00 -1.552895876E-03
 2.000005798E+02 6.806161880E+00 -1.531208400E-03
 2.000005798E+02 6.878778934E+00 -1.509199967E-03
 2.000005798E+02 6.951508999E+00 -1.487157075E-03
 2.000005798E+02 7.024354935E+00 -1.464821165E-03
 2.000005798E+02 7.097320557E+00 -1.442448352E-03
 2.000005798E+02 7.170408249E+00 -1.419811975E-03
 2.000005798E+02 7.243622303E+00 -1.397136250E-03
 2.000005798E+02 7.316966057E+00 -1.374227111E-03
 2.000005798E+02 7.390442371E+00 -1.351276296E-03
 2.000005798E+02 7.464056015E+00 -1.328123617E-03
 2.000005798E+02 7.537809849E+00 -1.304926584E-03
 2.000005798E+02 7.611707687E+00 -1.281560748E-03
 2.000005798E+02 7.685753822E+00 -1.258147880E-03
 2.000005798E+02 7.759952068E+00 -1.234600204E-03
 2.000005798E+02 7.834306240E+00 -1.211002702E-03
 2.000005798E+02 7.908820629E+00 -1.187306014E-03
 2.000005798E+02 7.983499527E+00 -1.163556706E-03
 2.000005798E+02 8.058346748E+00 -1.139745116E-03
 2.000005798E+02 8.133367538E+00 -1.115878113E-03
 2.000005798E+02 8.208565712E+00 -1.091986778E-03
 2.000005798E+02 8.283946037E+00 -1.068037353E-03
 2.000005798E+02 8.359512329E+00 -1.044103410E-03
 2.000005798E+02 8.435271263E+00 -1.020108233E-03
 2.000005798E+02 8.511225700E+00 -9.961696342E-04
 2.000005798E+02 8.587382317E+00 -9.721671231E-04
 2.000005798E+02 8.663744926E+00 -9.482632158E-04
 2.000005798E+02 8.740319252E+00 -9.242930100E-04
 2.000005798E+02 8.817110062E+00 -9.004654130E-04
 2.000005798E+02 8.894124031E+00 -8.765685488E-04
 2.000005798E+02 8.971365929E+00 -8.528594044E-04
 2.000005798E+02 9.048841476E+00 -8.290786063E-04
 2.000005798E+02 9.126556396E+00 -8.055323269E-04
 2.000005798E+02 9.204516411E+00 -7.819119492E-04
 2.000005798E+02 9.282728195E+00 -7.585743442E-04
 2.000005798E+02 9.361198425E+00 -7.351597887E-04
 2.000005798E+02 9.439931870E+00 -7.120782393E-04
 2.000005798E+02 9.518936157E+00 -6.889175274E-04
 2.000005798E+02 9.598217964E+00 -6.661408115E-04
 2.000005798E+02 9.677783012E+00 -6.432830705E-04
 2.000005798E+02 9.757639885E+00 -6.208618870E-04
 2.000005798E+02 9.837794304E+00 -5.983575829E-04
 2.000005798E+02 9.918253899E+00 -5.763444351E-04
 2.000005798E+02 9.999026299E+00 -5.542462459E-04
 2.000005798E+02 1.008011913E+01 -5.326945684E-04
 2.000005798E+02 1.016154003E+01 -5.110563943E-04
 2.000005798E+02 1.024329758E+01 -4.900215426E-04
 2.000005798E+02 1.032539940E+01 -4.688988847E-04
 2.000005798E+02 1.040785313E+01 -4.484378151E-04
 2.000005798E+02 1.049066830E+01 -4.278879496E-04
 2.000005798E+02 1.057385349E+01 -4.080583167E-04
 2.000005798E+02 1.065741730E+01 -3.881394514E-04
 2.000005798E+02 1.074136829E+01 -3.690008016E-04
 2.000005798E+02 1.082571697E+01 -3.497726284E-04
 2.000005798E+02 1.091047287E+01 -3.313843627E-04
 2.000005798E+02 1.099564457E+01 -3.129072138E-04
 2.000005798E+02 1.108124352E+01 -2.953299554E-04
 2.000005798E+02 1.116727924E+01 -2.776644833E-04
 2.000005798E+02 1.125376129E+01 -2.609590301E-04
 2.000005798E+02 1.134070206E+01 -2.441665856E-04
 2.000005798E+02 1.142811108E+01 -2.283923677E-04
 2.000005798E+02 1.151600075E+01 -2.125331812E-04
 2.000005798E+02 1.160438251E+01 -1.977484208E-04
 2.000005798E+02 1.169326687E+01 -1.828815293E-04
 2.000005798E+02 1.178266621E+01 -1.691422949E-04
 2.000005798E+02 1.187259388E+01 -1.553239563E-04
 2.000005798E+02 1.196306229E+01 -1.426817616E-04
 2.000005798E+02 1.205408287E+01 -1.299646392E-04
 2.000005798E+02 1.214566994E+01 -1.184654466E-04
 2.000005798E+02 1.223783779E+01 -1.068957208E-04
 2.000005798E+02 1.233059883E+01 -9.657721239E-05
 2.000005798E+02 1.242396736E+01 -8.619363507E-05
 2.000005798E+02 1.251795769E+01 -7.708236080E-05
 2.000005798E+02 1.261258602E+01 -6.791187479E-05
 2.000005798E+02 1.270786572E+01 -6.001963629E-05
 2.000005798E+02 1.280381393E+01 -5.207473805E-05
 2.000005798E+02 1.290044498E+01 -4.539456495E-05
 2.000005798E+02 1.299777603E+01 -3.866877887E-05
 2.000005798E+02 1.309582424E+01 -3.317054870E-05
 2.000005798E+02 1.319460487E+01 -2.763403972E-05
 2.000005798E+02 1.329413700E+01 -2.326056710E-05
 2.000005798E+02 1.339443684E+01 -1.885608799E-05
 2.000005798E+02 1.349552441E+01 -1.552013237E-05
 2.000005798E+02 1.359741783E+01 -1.216018427E-05
 2.000005798E+02 1.370013523E+01 -9.744550880E-06
 2.000005798E+02 1.380369759E+01 -7.311435638E-06
 2.000005798E+02 1.390812302E+01 -5.672941825E-06
 2.000005798E+02 1.401343441E+01 -4.022643679E-06
 2.000005798E+02 1.411965084E+01 -3.000790684E-06
 2.000005798E+02 1.422679424E+01 -1.971764959E-06
 2.000005798E+02 1.433488750E+01 -1.401525878E-06
 2.000005798E+02 1.444395161E+01 -8.275143841E-07
 2.000005798E+02 1.455401039E+01 -5.543348607E-07
 2.000005798E+02 1.466508770E+01 -2.795717364E-07
 2.000005798E+02 1.477720737E+01 -1.744756588E-07
 2.000005798E+02 1.489039326E+01 -6.895700722E-08
 2.000005798E+02 1.500467205E+01 -4.026683342E-08
 2.000005798E+02 1.512006855E+01 -1.158357410E-08
 2.000005798E+02 1.523660946E+01 -7.634842980E-09
 2.000005798E+02 1.535432148E+01 -3.750537658E-09
 2.000005798E+02 1.547323322E+01 -3.849256469E-09
 2.000005798E+02 1.559337330E+01 -3.969622853E-09
 2.000005798E+02 1.571476936E+01 -3.552025785E-09
 2.000005798E+02 1.583745193E+01 -3.128330484E-09
 2.000005798E+02 1.596145058E+01 -2.469046967E-09
 2.000005798E+02 1.608679771E+01 -1.800814609E-09
 2.000005798E+02 1.621352577E+01 -1.390485838E-09
 2.000005798E+02 1.634166527E+01 -9.761080833E-10
 2.000005798E+02 1.647125053E+01 -8.384096195E-10
 2.000005798E+02 1.660231590E+01 -7.001470514E-10
 2.000005798E+02 1.673489571E+01 -6.959424703E-10
 2.000005798E+02 1.686902809E+01 -6.922730722E-10
 2.000005798E+02 1.700474739E+01 -7.178316830E-10
 2.000005798E+02 1.714209175E+01 -7.438593075E-10
 2.000005798E+02 1.728109741E+01 -7.582875994E-10
 2.000005798E+02 1.742180824E+01 -7.728611640E-10
 2.000005798E+02 1.756426048E+01 -7.711872252E-10
 2.000005798E+02 1.770849800E+01 -7.694219151E-10
 2.000005798E+02 1.785456276E+01 -7.587525053E-10