TITLE     = "Plot3D DataSet"
VARIABLES = "X"
"Y"
"RHO-U"
DATASETAUXDATA Common.AngleOfAttack="0"
DATASETAUXDATA Common.DensityVar="4"
DATASETAUXDATA Common.ReferenceMachNumber="0.121108"
DATASETAUXDATA Common.ReynoldsNumber="2900"
DATASETAUXDATA Common.SpeedOfSound="1.0"
DATASETAUXDATA Common.StagnationEnergyVar="7"
DATASETAUXDATA Common.UVar="5"
DATASETAUXDATA Common.VectorVarsAreVelocity="FALSE"
DATASETAUXDATA Common.VVar="6"
ZONE T="x = 200"
 STRANDID=0, SOLUTIONTIME=0
 I=735, J=1, K=1, ZONETYPE=Ordered
 DATAPACKING=POINT
 DT=(SINGLE SINGLE SINGLE )
 2.000005798E+02 -1.466365967E+02 1.080937423E-12
 2.000005798E+02 -1.437562866E+02 9.424266922E-13
 2.000005798E+02 -1.409408569E+02 8.047201143E-13
 2.000005798E+02 -1.381888275E+02 4.789510260E-13
 2.000005798E+02 -1.354987183E+02 1.691967692E-13
 2.000005798E+02 -1.328691101E+02 6.231513786E-13
 2.000005798E+02 -1.302985992E+02 1.063109236E-12
 2.000005798E+02 -1.277858353E+02 1.174927126E-12
 2.000005798E+02 -1.253294830E+02 1.283759991E-12
 2.000005798E+02 -1.229282455E+02 1.354441949E-12
 2.000005798E+02 -1.205808334E+02 1.423657524E-12
 2.000005798E+02 -1.182860260E+02 1.508068627E-12
 2.000005798E+02 -1.160426025E+02 1.590452596E-12
 2.000005798E+02 -1.138493729E+02 1.665050151E-12
 2.000005798E+02 -1.117051849E+02 1.737762712E-12
 2.000005798E+02 -1.096089096E+02 1.795072120E-12
 2.000005798E+02 -1.075594330E+02 1.850904629E-12
 2.000005798E+02 -1.055556870E+02 1.892722958E-12
 2.000005798E+02 -1.035966110E+02 1.933429762E-12
 2.000005798E+02 -1.016811752E+02 1.961413020E-12
 2.000005798E+02 -9.980837250E+01 1.988605027E-12
 2.000005798E+02 -9.797721863E+01 2.003736586E-12
 2.000005798E+02 -9.618675995E+01 2.018373966E-12
 2.000005798E+02 -9.443605042E+01 2.021538536E-12
 2.000005798E+02 -9.272417450E+01 2.024486264E-12
 2.000005798E+02 -9.105023956E+01 2.016636641E-12
 2.000005798E+02 -8.941336823E+01 2.008825615E-12
 2.000005798E+02 -8.781270599E+01 1.990940399E-12
 2.000005798E+02 -8.624742126E+01 1.973326884E-12
 2.000005798E+02 -8.471669006E+01 1.946374485E-12
 2.000005798E+02 -8.321972656E+01 1.919904340E-12
 2.000005798E+02 -8.175573730E+01 1.884823894E-12
 2.000005798E+02 -8.032398224E+01 1.850414353E-12
 2.000005798E+02 -7.892369843E+01 1.808105748E-12
 2.000005798E+02 -7.755416870E+01 1.766634907E-12
 2.000005798E+02 -7.621468353E+01 1.717948808E-12
 2.000005798E+02 -7.490454865E+01 1.670247924E-12
 2.000005798E+02 -7.362309265E+01 1.615981329E-12
 2.000005798E+02 -7.236964417E+01 1.562828209E-12
 2.000005798E+02 -7.114356995E+01 1.503719241E-12
 2.000005798E+02 -6.994422150E+01 1.445834446E-12
 2.000005798E+02 -6.877099609E+01 1.382559432E-12
 2.000005798E+02 -6.762329102E+01 1.320604216E-12
 2.000005798E+02 -6.650051117E+01 1.253777355E-12
 2.000005798E+02 -6.540208435E+01 1.188350199E-12
 2.000005798E+02 -6.432745361E+01 1.118523568E-12
 2.000005798E+02 -6.327605820E+01 1.050163103E-12
 2.000005798E+02 -6.224737549E+01 9.778265437E-13
 2.000005798E+02 -6.124087143E+01 9.070114993E-13
 2.000005798E+02 -6.025604248E+01 8.325963074E-13
 2.000005798E+02 -5.929238510E+01 7.597476251E-13
 2.000005798E+02 -5.834941101E+01 6.836269831E-13
 2.000005798E+02 -5.742664337E+01 6.091083584E-13
 2.000005798E+02 -5.652361679E+01 5.316008050E-13
 2.000005798E+02 -5.563987350E+01 4.557227534E-13
 2.000005798E+02 -5.477497101E+01 3.770931321E-13
 2.000005798E+02 -5.392847824E+01 3.001145339E-13
 2.000005798E+02 -5.309996414E+01 2.205788991E-13
 2.000005798E+02 -5.228901672E+01 1.427093307E-13
 2.000005798E+02 -5.149523163E+01 6.243601149E-14
 2.000005798E+02 -5.071820831E+01 -1.616072964E-14
 2.000005798E+02 -4.995756912E+01 -9.704772251E-14
 2.000005798E+02 -4.921292877E+01 -1.762505479E-13
 2.000005798E+02 -4.848392487E+01 -2.576688591E-13
 2.000005798E+02 -4.777018738E+01 -3.373984848E-13
 2.000005798E+02 -4.707137299E+01 -4.193059474E-13
 2.000005798E+02 -4.638713455E+01 -4.995208349E-13
 2.000005798E+02 -4.571713257E+01 -5.819123395E-13
 2.000005798E+02 -4.506104660E+01 -6.626084772E-13
 2.000005798E+02 -4.441854477E+01 -7.455136768E-13
 2.000005798E+02 -4.378932571E+01 -8.267211785E-13
 2.000005798E+02 -4.317307281E+01 -9.102029026E-13
 2.000005798E+02 -4.256949234E+01 -9.919849230E-13
 2.000005798E+02 -4.197829056E+01 -1.076138094E-12
 2.000005798E+02 -4.139918518E+01 -1.158587440E-12
 2.000005798E+02 -4.083189011E+01 -1.243537283E-12
 2.000005798E+02 -4.027614212E+01 -1.326777338E-12
 2.000005798E+02 -3.973166656E+01 -1.412676833E-12
 2.000005798E+02 -3.919820786E+01 -1.496859277E-12
 2.000005798E+02 -3.867551422E+01 -1.583889703E-12
 2.000005798E+02 -3.816333008E+01 -1.669193212E-12
 2.000005798E+02 -3.766141891E+01 -1.757562737E-12
 2.000005798E+02 -3.716954422E+01 -1.844190382E-12
 2.000005798E+02 -3.668746948E+01 -1.934132975E-12
 2.000005798E+02 -3.621497345E+01 -2.022316125E-12
 2.000005798E+02 -3.575183105E+01 -2.114091020E-12
 2.000005798E+02 -3.529782867E+01 -2.204084788E-12
 2.000005798E+02 -3.485276031E+01 -2.297973227E-12
 2.000005798E+02 -3.441641235E+01 -2.390054951E-12
 2.000005798E+02 -3.398858643E+01 -2.486365931E-12
 2.000005798E+02 -3.356908417E+01 -2.580838971E-12
 2.000005798E+02 -3.315771866E+01 -2.679902958E-12
 2.000005798E+02 -3.275429916E+01 -2.777092358E-12
 2.000005798E+02 -3.235864258E+01 -2.879261933E-12
 2.000005798E+02 -3.197056961E+01 -2.979515723E-12
 2.000005798E+02 -3.158990479E+01 -3.085168622E-12
 2.000005798E+02 -3.121647835E+01 -3.188858032E-12
 2.000005798E+02 -3.085012245E+01 -3.298391725E-12
 2.000005798E+02 -3.049067497E+01 -3.405909018E-12
 2.000005798E+02 -3.013797760E+01 -3.519742657E-12
 2.000005798E+02 -2.979187202E+01 -3.631501350E-12
 2.000005798E+02 -2.945220757E+01 -3.750076204E-12
 2.000005798E+02 -2.911883545E+01 -3.866511278E-12
 2.000005798E+02 -2.879160881E+01 -3.990289869E-12
 2.000005798E+02 -2.847039032E+01 -4.111855387E-12
 2.000005798E+02 -2.815503693E+01 -4.241316933E-12
 2.000005798E+02 -2.784541702E+01 -4.368488644E-12
 2.000005798E+02 -2.754139519E+01 -4.504133178E-12
 2.000005798E+02 -2.724284363E+01 -4.637405043E-12
 2.000005798E+02 -2.694963646E+01 -4.779752115E-12
 2.000005798E+02 -2.666165161E+01 -4.919635446E-12
 2.000005798E+02 -2.637876511E+01 -5.069221952E-12
 2.000005798E+02 -2.610086250E+01 -5.216248006E-12
 2.000005798E+02 -2.582782745E+01 -5.373626023E-12
 2.000005798E+02 -2.555954742E+01 -5.528341673E-12
 2.000005798E+02 -2.529591560E+01 -5.694081057E-12
 2.000005798E+02 -2.503681946E+01 -5.857050522E-12
 2.000005798E+02 -2.478215981E+01 -6.031736308E-12
 2.000005798E+02 -2.453182983E+01 -6.203537250E-12
 2.000005798E+02 -2.428573418E+01 -6.387768352E-12
 2.000005798E+02 -2.404377174E+01 -6.568993179E-12
 2.000005798E+02 -2.380584717E+01 -6.763384557E-12
 2.000005798E+02 -2.357186890E+01 -6.954642591E-12
 2.000005798E+02 -2.334174538E+01 -7.159818745E-12
 2.000005798E+02 -2.311538696E+01 -7.361731016E-12
 2.000005798E+02 -2.289270973E+01 -7.578328590E-12
 2.000005798E+02 -2.267362404E+01 -7.791529574E-12
 2.000005798E+02 -2.245805168E+01 -8.020201690E-12
 2.000005798E+02 -2.224590683E+01 -8.245336705E-12
 2.000005798E+02 -2.203711510E+01 -8.486746896E-12
 2.000005798E+02 -2.183159637E+01 -8.724473401E-12
 2.000005798E+02 -2.162927628E+01 -8.979295606E-12
 2.000005798E+02 -2.143008041E+01 -9.230286674E-12
 2.000005798E+02 -2.123393631E+01 -9.499209579E-12
 2.000005798E+02 -2.104077530E+01 -9.764147824E-12
 2.000005798E+02 -2.085052681E+01 -1.004786618E-11
 2.000005798E+02 -2.066312408E+01 -1.032744723E-11
 2.000005798E+02 -2.047850037E+01 -1.062667489E-11
 2.000005798E+02 -2.029659462E+01 -1.092160563E-11
 2.000005798E+02 -2.011734200E+01 -1.123706163E-11
 2.000005798E+02 -1.994068146E+01 -1.154806459E-11
 2.000005798E+02 -1.976655388E+01 -1.188048705E-11
 2.000005798E+02 -1.959489822E+01 -1.220830034E-11
 2.000005798E+02 -1.942566109E+01 -1.255843953E-11
 2.000005798E+02 -1.925878525E+01 -1.290380476E-11
 2.000005798E+02 -1.909421539E+01 -1.327242830E-11
 2.000005798E+02 -1.893190002E+01 -1.363611394E-11
 2.000005798E+02 -1.877178574E+01 -1.402399898E-11
 2.000005798E+02 -1.861382103E+01 -1.440678913E-11
 2.000005798E+02 -1.845795822E+01 -1.481473624E-11
 2.000005798E+02 -1.830414772E+01 -1.521742454E-11
 2.000005798E+02 -1.815234184E+01 -1.564625686E-11
 2.000005798E+02 -1.800249481E+01 -1.606966817E-11
 2.000005798E+02 -1.785456276E+01 -1.652021402E-11
 2.000005798E+02 -1.770849800E+01 -1.696518273E-11
 2.000005798E+02 -1.756426048E+01 -1.743831642E-11
 2.000005798E+02 -1.742180824E+01 -1.790570643E-11
 2.000005798E+02 -1.728109741E+01 -1.840230919E-11
 2.000005798E+02 -1.714209175E+01 -1.889300522E-11
 2.000005798E+02 -1.700474739E+01 -1.941399298E-11
 2.000005798E+02 -1.686902809E+01 -1.992892656E-11
 2.000005798E+02 -1.673489571E+01 -2.047525170E-11
 2.000005798E+02 -1.660231590E+01 -2.101536306E-11
 2.000005798E+02 -1.647125053E+01 -2.158800742E-11
 2.000005798E+02 -1.634166527E+01 -2.215429402E-11
 2.000005798E+02 -1.621352577E+01 -2.275430018E-11
 2.000005798E+02 -1.608679771E+01 -2.334780633E-11
 2.000005798E+02 -1.596145058E+01 -2.397628103E-11
 2.000005798E+02 -1.583745193E+01 -2.459810307E-11
 2.000005798E+02 -1.571476936E+01 -2.525624675E-11
 2.000005798E+02 -1.559337330E+01 -2.590759725E-11
 2.000005798E+02 -1.547323322E+01 -2.659676299E-11
 2.000005798E+02 -1.535432148E+01 -2.727899157E-11
 2.000005798E+02 -1.523660946E+01 -2.800074408E-11
 2.000005798E+02 -1.512006855E+01 -2.871542414E-11
 2.000005798E+02 -1.500467205E+01 -2.947170979E-11
 2.000005798E+02 -1.489039326E+01 -3.022077727E-11
 2.000005798E+02 -1.477720737E+01 -3.101410101E-11
 2.000005798E+02 -1.466508770E+01 -3.180006952E-11
 2.000005798E+02 -1.455401039E+01 -3.263390599E-11
 2.000005798E+02 -1.444395161E+01 -3.346022071E-11
 2.000005798E+02 -1.433488750E+01 -3.433957632E-11
 2.000005798E+02 -1.422679424E+01 -3.521124711E-11
 2.000005798E+02 -1.411965084E+01 -3.614367139E-11
 2.000005798E+02 -1.401343441E+01 -3.706819574E-11
 2.000005798E+02 -1.390812302E+01 -3.806531826E-11
 2.000005798E+02 -1.380369759E+01 -3.905426676E-11
 2.000005798E+02 -1.370013523E+01 -4.013427438E-11
 2.000005798E+02 -1.359741783E+01 -4.120575409E-11
 2.000005798E+02 -1.349552441E+01 -4.239725584E-11
 2.000005798E+02 -1.339443684E+01 -4.357971969E-11
 2.000005798E+02 -1.329413700E+01 -4.492776984E-11
 2.000005798E+02 -1.319460487E+01 -4.626605002E-11
 2.000005798E+02 -1.309582424E+01 -4.784156404E-11
 2.000005798E+02 -1.299777603E+01 -4.940618747E-11
 2.000005798E+02 -1.290044498E+01 -5.132042707E-11
 2.000005798E+02 -1.280381393E+01 -5.322205177E-11
 2.000005798E+02 -1.270786572E+01 -5.564913808E-11
 2.000005798E+02 -1.261258602E+01 -5.806100739E-11
 2.000005798E+02 -1.251795769E+01 -6.127269525E-11
 2.000005798E+02 -1.242396736E+01 -6.446523870E-11
 2.000005798E+02 -1.233059883E+01 -6.888464799E-11
 2.000005798E+02 -1.223783779E+01 -7.327902868E-11
 2.000005798E+02 -1.214566994E+01 -7.956389714E-11
 2.000005798E+02 -1.205408287E+01 -8.581473032E-11
 2.000005798E+02 -1.196306229E+01 -9.498548476E-11
 2.000005798E+02 -1.187259388E+01 -1.041088535E-10
 2.000005798E+02 -1.178266621E+01 -1.177483389E-10
 2.000005798E+02 -1.169326687E+01 -1.313199272E-10
 2.000005798E+02 -1.160438251E+01 -1.518803555E-10
 2.000005798E+02 -1.151600075E+01 -1.723427512E-10
 2.000005798E+02 -1.142811108E+01 -2.036228408E-10
 2.000005798E+02 -1.134070206E+01 -2.347588235E-10
 2.000005798E+02 -1.125376129E+01 -2.826412160E-10
 2.000005798E+02 -1.116727924E+01 -3.303108342E-10
 2.000005798E+02 -1.108124352E+01 -4.039170109E-10
 2.000005798E+02 -1.099564457E+01 -4.772092721E-10
 2.000005798E+02 -1.091047287E+01 -5.907034861E-10
 2.000005798E+02 -1.082571697E+01 -7.037322391E-10
 2.000005798E+02 -1.074136829E+01 -8.790655981E-10
 2.000005798E+02 -1.065741730E+01 -1.053702126E-09
 2.000005798E+02 -1.057385349E+01 -1.324552246E-09
 2.000005798E+02 -1.049066830E+01 -1.594367971E-09
 2.000005798E+02 -1.040785313E+01 -2.012606526E-09
 2.000005798E+02 -1.032539940E+01 -2.429315860E-09
 2.000005798E+02 -1.024329758E+01 -3.081201738E-09
 2.000005798E+02 -1.016154003E+01 -3.730853404E-09
 2.000005798E+02 -1.008011913E+01 -4.778297313E-09
 2.000005798E+02 -9.999026299E+00 -5.822312854E-09
 2.000005798E+02 -9.918253899E+00 -7.535345681E-09
 2.000005798E+02 -9.837794304E+00 -9.242282495E-09
 2.000005798E+02 -9.757639885E+00 -1.165237418E-08
 2.000005798E+02 -9.677783012E+00 -1.405022410E-08
 2.000005798E+02 -9.598217964E+00 -1.482919121E-08
 2.000005798E+02 -9.518936157E+00 -1.558653295E-08
 2.000005798E+02 -9.439931870E+00 -3.303957552E-09
 2.000005798E+02 -9.361198425E+00 8.994575751E-09
 2.000005798E+02 -9.282728195E+00 6.738186187E-08
 2.000005798E+02 -9.204516411E+00 1.256966584E-07
 2.000005798E+02 -9.126556396E+00 2.913812693E-07
 2.000005798E+02 -9.048841476E+00 4.566921064E-07
 2.000005798E+02 -8.971365929E+00 7.855556987E-07
 2.000005798E+02 -8.894124031E+00 1.113446274E-06
 2.000005798E+02 -8.817110062E+00 1.553390121E-06
 2.000005798E+02 -8.740319252E+00 1.991666977E-06
 2.000005798E+02 -8.663744926E+00 2.250892067E-06
 2.000005798E+02 -8.587382317E+00 2.508317266E-06
 2.000005798E+02 -8.511225700E+00 2.013898893E-06
 2.000005798E+02 -8.435271263E+00 1.518930844E-06
 2.000005798E+02 -8.359512329E+00 -4.502792308E-07
 2.000005798E+02 -8.283946037E+00 -2.416961706E-06
 2.000005798E+02 -8.208565712E+00 -6.498451967E-06
 2.000005798E+02 -8.133367538E+00 -1.057287136E-05
 2.000005798E+02 -8.058346748E+00 -1.715629696E-05
 2.000005798E+02 -7.983499527E+00 -2.372726703E-05
 2.000005798E+02 -7.908820629E+00 -3.293284681E-05
 2.000005798E+02 -7.834306240E+00 -4.212071508E-05
 2.000005798E+02 -7.759952068E+00 -5.386934936E-05
 2.000005798E+02 -7.685753822E+00 -6.559558824E-05
 2.000005798E+02 -7.611707687E+00 -7.969517901E-05
 2.000005798E+02 -7.537809849E+00 -9.376840171E-05
 2.000005798E+02 -7.464056015E+00 -1.099784058E-04
 2.000005798E+02 -7.390442371E+00 -1.261591387E-04
 2.000005798E+02 -7.316966057E+00 -1.442292414E-04
 2.000005798E+02 -7.243622303E+00 -1.622679847E-04
 2.000005798E+02 -7.170408249E+00 -1.819585304E-04
 2.000005798E+02 -7.097320557E+00 -2.016160433E-04
 2.000005798E+02 -7.024354935E+00 -2.227066725E-04
 2.000005798E+02 -6.951508999E+00 -2.437634248E-04
 2.000005798E+02 -6.878778934E+00 -2.660556056E-04
 2.000005798E+02 -6.806161880E+00 -2.883136622E-04
 2.000005798E+02 -6.733654022E+00 -3.116312437E-04
 2.000005798E+02 -6.661252975E+00 -3.349148319E-04
 2.000005798E+02 -6.588954926E+00 -3.591019195E-04
 2.000005798E+02 -6.516757965E+00 -3.832554503E-04
 2.000005798E+02 -6.444657803E+00 -4.081743828E-04
 2.000005798E+02 -6.372652531E+00 -4.330606025E-04
 2.000005798E+02 -6.300739288E+00 -4.585897841E-04
 2.000005798E+02 -6.228914738E+00 -4.840874753E-04
 2.000005798E+02 -6.157176971E+00 -5.101194838E-04
 2.000005798E+02 -6.085522175E+00 -5.361212534E-04
 2.000005798E+02 -6.013948917E+00 -5.625608028E-04
 2.000005798E+02 -5.942453384E+00 -5.889715976E-04
 2.000005798E+02 -5.871034145E+00 -6.157339667E-04
 2.000005798E+02 -5.799687862E+00 -6.424688036E-04
 2.000005798E+02 -5.728412628E+00 -6.694784388E-04
 2.000005798E+02 -5.657205582E+00 -6.964619388E-04
 2.000005798E+02 -5.586064816E+00 -7.236507372E-04
 2.000005798E+02 -5.514987469E+00 -7.508150302E-04
 2.000005798E+02 -5.443971157E+00 -7.781222812E-04
 2.000005798E+02 -5.373014450E+00 -8.054063655E-04
 2.000005798E+02 -5.302114010E+00 -8.327766554E-04
 2.000005798E+02 -5.231267929E+00 -8.601257578E-04
 2.000005798E+02 -5.160474777E+00 -8.875089698E-04
 2.000005798E+02 -5.089731216E+00 -9.148727986E-04
 2.000005798E+02 -5.019035816E+00 -9.422237636E-04
 2.000005798E+02 -4.948386192E+00 -9.695568588E-04
 2.000005798E+02 -4.877780437E+00 -9.968339000E-04
 2.000005798E+02 -4.807216167E+00 -1.024094759E-03
 2.000005798E+02 -4.736691952E+00 -1.051259576E-03
 2.000005798E+02 -4.666204929E+00 -1.078409958E-03
 2.000005798E+02 -4.595753670E+00 -1.105427509E-03
 2.000005798E+02 -4.525336266E+00 -1.132432022E-03
 2.000005798E+02 -4.454950333E+00 -1.159269712E-03
 2.000005798E+02 -4.384593964E+00 -1.186095993E-03
 2.000005798E+02 -4.314265728E+00 -1.212723553E-03
 2.000005798E+02 -4.243963242E+00 -1.239341218E-03
 2.000005798E+02 -4.173684597E+00 -1.265730592E-03
 2.000005798E+02 -4.103427887E+00 -1.292111585E-03
 2.000005798E+02 -4.033191681E+00 -1.318236231E-03
 2.000005798E+02 -3.962973595E+00 -1.344354125E-03
 2.000005798E+02 -3.892771959E+00 -1.370189479E-03
 2.000005798E+02 -3.822585106E+00 -1.396019245E-03
 2.000005798E+02 -3.752410889E+00 -1.421541907E-03
 2.000005798E+02 -3.682247400E+00 -1.447060495E-03
 2.000005798E+02 -3.612093210E+00 -1.472248230E-03
 2.000005798E+02 -3.541946411E+00 -1.497433288E-03
 2.000005798E+02 -3.471804857E+00 -1.522265724E-03
 2.000005798E+02 -3.401666880E+00 -1.547096996E-03
 2.000005798E+02 -3.331530809E+00 -1.571555273E-03
 2.000005798E+02 -3.261394739E+00 -1.596013317E-03
 2.000005798E+02 -3.191314459E+00 -1.620057505E-03
 2.000005798E+02 -3.121287346E+00 -1.644083182E-03
 2.000005798E+02 -3.051311255E+00 -1.667675679E-03
 2.000005798E+02 -2.981384039E+00 -1.691251295E-03
 2.000005798E+02 -2.911503315E+00 -1.714378246E-03
 2.000005798E+02 -2.841667652E+00 -1.737489831E-03
 2.000005798E+02 -2.771874666E+00 -1.760137035E-03
 2.000005798E+02 -2.702122688E+00 -1.782770618E-03
 2.000005798E+02 -2.632410049E+00 -1.804924337E-03
 2.000005798E+02 -2.562734842E+00 -1.827065833E-03
 2.000005798E+02 -2.493095636E+00 -1.848712447E-03
 2.000005798E+02 -2.423491001E+00 -1.870348002E-03
 2.000005798E+02 -2.353919268E+00 -1.891474240E-03
 2.000005798E+02 -2.284379005E+00 -1.912590815E-03
 2.000005798E+02 -2.214868784E+00 -1.933183987E-03
 2.000005798E+02 -2.145387411E+00 -1.953768311E-03
 2.000005798E+02 -2.075933456E+00 -1.973815961E-03
 2.000005798E+02 -2.006505728E+00 -1.993855927E-03
 2.000005798E+02 -1.937103152E+00 -2.013345715E-03
 2.000005798E+02 -1.867724299E+00 -2.032828750E-03
 2.000005798E+02 -1.798368335E+00 -2.051749267E-03
 2.000005798E+02 -1.729033947E+00 -2.070663730E-03
 2.000005798E+02 -1.659720063E+00 -2.089003101E-03
 2.000005798E+02 -1.590425849E+00 -2.107337350E-03
 2.000005798E+02 -1.521150112E+00 -2.125084400E-03
 2.000005798E+02 -1.451891899E+00 -2.142826794E-03
 2.000005798E+02 -1.382650375E+00 -2.159970812E-03
 2.000005798E+02 -1.313424468E+00 -2.177110640E-03
 2.000005798E+02 -1.244213462E+00 -2.193640219E-03
 2.000005798E+02 -1.175016165E+00 -2.210166771E-03
 2.000005798E+02 -1.105831981E+00 -2.226071898E-03
 2.000005798E+02 -1.036659956E+00 -2.241974231E-03
 2.000005798E+02 -9.674993157E-01 -2.257244661E-03
 2.000005798E+02 -8.983491063E-01 -2.272512764E-03
 2.000005798E+02 -8.292086124E-01 -2.287138253E-03
 2.000005798E+02 -7.600769997E-01 -2.301761881E-03
 2.000005798E+02 -6.909535527E-01 -2.315732883E-03
 2.000005798E+02 -6.218374372E-01 -2.329702489E-03
 2.000005798E+02 -5.527279377E-01 -2.343009226E-03
 2.000005798E+02 -4.836242497E-01 -2.356315032E-03
 2.000005798E+02 -4.145256579E-01 -2.368948190E-03
 2.000005798E+02 -3.454314172E-01 -2.381580649E-03
 2.000005798E+02 -2.763408124E-01 -2.393531147E-03
 2.000005798E+02 -2.072530836E-01 -2.405481413E-03
 2.000005798E+02 -1.381675154E-01 -2.416740172E-03
 2.000005798E+02 -6.908340007E-02 -2.427998697E-03
 2.000005798E+02 1.136868377E-13 -2.438557334E-03
 2.000005798E+02 6.908340007E-02 -2.449115738E-03
 2.000005798E+02 1.381675154E-01 -2.458965173E-03
 2.000005798E+02 2.072530836E-01 -2.468815073E-03
 2.000005798E+02 2.763408124E-01 -2.477947157E-03
 2.000005798E+02 3.454314172E-01 -2.487079939E-03
 2.000005798E+02 4.145256579E-01 -2.495486755E-03
 2.000005798E+02 4.836242497E-01 -2.503894037E-03
 2.000005798E+02 5.527279377E-01 -2.511567436E-03
 2.000005798E+02 6.218374372E-01 -2.519241534E-03
 2.000005798E+02 6.909535527E-01 -2.526174067E-03
 2.000005798E+02 7.600769997E-01 -2.533107065E-03
 2.000005798E+02 8.292086124E-01 -2.539290814E-03
 2.000005798E+02 8.983491063E-01 -2.545475494E-03
 2.000005798E+02 9.674993157E-01 -2.550903242E-03
 2.000005798E+02 1.036659956E+00 -2.556331921E-03
 2.000005798E+02 1.105831981E+00 -2.560996683E-03
 2.000005798E+02 1.175016165E+00 -2.565662377E-03
 2.000005798E+02 1.244213462E+00 -2.569557168E-03
 2.000005798E+02 1.313424468E+00 -2.573452890E-03
 2.000005798E+02 1.382650375E+00 -2.576571191E-03
 2.000005798E+02 1.451891899E+00 -2.579689957E-03
 2.000005798E+02 1.521150112E+00 -2.582025016E-03
 2.000005798E+02 1.590425849E+00 -2.584360773E-03
 2.000005798E+02 1.659720063E+00 -2.585906303E-03
 2.000005798E+02 1.729033947E+00 -2.587452298E-03
 2.000005798E+02 1.798368335E+00 -2.588202711E-03
 2.000005798E+02 1.867724299E+00 -2.588952892E-03
 2.000005798E+02 1.937103152E+00 -2.588901669E-03
 2.000005798E+02 2.006505728E+00 -2.588850446E-03
 2.000005798E+02 2.075933456E+00 -2.587992232E-03
 2.000005798E+02 2.145387411E+00 -2.587133786E-03
 2.000005798E+02 2.214868784E+00 -2.585463226E-03
 2.000005798E+02 2.284379005E+00 -2.583791735E-03
 2.000005798E+02 2.353919268E+00 -2.581303474E-03
 2.000005798E+02 2.423491001E+00 -2.578813815E-03
 2.000005798E+02 2.493095636E+00 -2.575502731E-03
 2.000005798E+02 2.562734842E+00 -2.572190017E-03
 2.000005798E+02 2.632410049E+00 -2.568051452E-03
 2.000005798E+02 2.702122688E+00 -2.563910559E-03
 2.000005798E+02 2.771874666E+00 -2.558939857E-03
 2.000005798E+02 2.841667652E+00 -2.553965896E-03
 2.000005798E+02 2.911503315E+00 -2.548158634E-03
 2.000005798E+02 2.981384039E+00 -2.542347182E-03
 2.000005798E+02 3.051311255E+00 -2.535697306E-03
 2.000005798E+02 3.121287346E+00 -2.529042540E-03
 2.000005798E+02 3.191314459E+00 -2.521548886E-03
 2.000005798E+02 3.261394739E+00 -2.514049644E-03
 2.000005798E+02 3.331530809E+00 -2.505709417E-03
 2.000005798E+02 3.401666880E+00 -2.497368958E-03
 2.000005798E+02 3.471804857E+00 -2.488190308E-03
 2.000005798E+02 3.541946411E+00 -2.479011426E-03
 2.000005798E+02 3.612093210E+00 -2.468996914E-03
 2.000005798E+02 3.682247400E+00 -2.458981238E-03
 2.000005798E+02 3.752410889E+00 -2.448132262E-03
 2.000005798E+02 3.822585106E+00 -2.437281888E-03
 2.000005798E+02 3.892771959E+00 -2.425600542E-03
 2.000005798E+02 3.962973595E+00 -2.413916867E-03
 2.000005798E+02 4.033191681E+00 -2.401405480E-03
 2.000005798E+02 4.103427887E+00 -2.388890833E-03
 2.000005798E+02 4.173684597E+00 -2.375551965E-03
 2.000005798E+02 4.243963242E+00 -2.362209139E-03
 2.000005798E+02 4.314265728E+00 -2.348046284E-03
 2.000005798E+02 4.384593964E+00 -2.333878074E-03
 2.000005798E+02 4.454950333E+00 -2.318895189E-03
 2.000005798E+02 4.525336266E+00 -2.303905785E-03
 2.000005798E+02 4.595753670E+00 -2.288107295E-03
 2.000005798E+02 4.666204929E+00 -2.272301121E-03
 2.000005798E+02 4.736691952E+00 -2.255692147E-03
 2.000005798E+02 4.807216167E+00 -2.239074325E-03
 2.000005798E+02 4.877780437E+00 -2.221661154E-03
 2.000005798E+02 4.948386192E+00 -2.204237506E-03
 2.000005798E+02 5.019035816E+00 -2.186027123E-03
 2.000005798E+02 5.089731216E+00 -2.167804865E-03
 2.000005798E+02 5.160474777E+00 -2.148804720E-03
 2.000005798E+02 5.231267929E+00 -2.129791304E-03
 2.000005798E+02 5.302114010E+00 -2.110010479E-03
 2.000005798E+02 5.373014450E+00 -2.090214053E-03
 2.000005798E+02 5.443971157E+00 -2.069662558E-03
 2.000005798E+02 5.514987469E+00 -2.049093600E-03
 2.000005798E+02 5.586064816E+00 -2.027781913E-03
 2.000005798E+02 5.657205582E+00 -2.006451134E-03
 2.000005798E+02 5.728412628E+00 -1.984392293E-03
 2.000005798E+02 5.799687862E+00 -1.962311799E-03
 2.000005798E+02 5.871034145E+00 -1.939518843E-03
 2.000005798E+02 5.942453384E+00 -1.916702371E-03
 2.000005798E+02 6.013948917E+00 -1.893190783E-03
 2.000005798E+02 6.085522175E+00 -1.869653352E-03
 2.000005798E+02 6.157176971E+00 -1.845440129E-03
 2.000005798E+02 6.228914738E+00 -1.821198501E-03
 2.000005798E+02 6.300739288E+00 -1.796302269E-03
 2.000005798E+02 6.372652531E+00 -1.771374955E-03
 2.000005798E+02 6.444657803E+00 -1.745816553E-03
 2.000005798E+02 6.516757965E+00 -1.720224158E-03
 2.000005798E+02 6.588954926E+00 -1.694026287E-03
 2.000005798E+02 6.661252975E+00 -1.667791279E-03
 2.000005798E+02 6.733654022E+00 -1.640979201E-03
 2.000005798E+02 6.806161880E+00 -1.614127075E-03
 2.000005798E+02 6.878778934E+00 -1.586728380E-03
 2.000005798E+02 6.951508999E+00 -1.559286611E-03
 2.000005798E+02 7.024354935E+00 -1.531331916E-03
 2.000005798E+02 7.097320557E+00 -1.503330772E-03
 2.000005798E+02 7.170408249E+00 -1.474853954E-03
 2.000005798E+02 7.243622303E+00 -1.446327427E-03
 2.000005798E+02 7.316966057E+00 -1.417365158E-03
 2.000005798E+02 7.390442371E+00 -1.388350152E-03
 2.000005798E+02 7.464056015E+00 -1.358943409E-03
 2.000005798E+02 7.537809849E+00 -1.329480205E-03
 2.000005798E+02 7.611707687E+00 -1.299674157E-03
 2.000005798E+02 7.685753822E+00 -1.269807923E-03
 2.000005798E+02 7.759952068E+00 -1.239651465E-03
 2.000005798E+02 7.834306240E+00 -1.209431211E-03
 2.000005798E+02 7.908820629E+00 -1.178978593E-03
 2.000005798E+02 7.983499527E+00 -1.148458337E-03
 2.000005798E+02 8.058346748E+00 -1.117769163E-03
 2.000005798E+02 8.133367538E+00 -1.087008626E-03
 2.000005798E+02 8.208565712E+00 -1.056147739E-03
 2.000005798E+02 8.283946037E+00 -1.025211997E-03
 2.000005798E+02 8.359512329E+00 -9.942515753E-04
 2.000005798E+02 8.435271263E+00 -9.632122819E-04
 2.000005798E+02 8.511225700E+00 -9.322306723E-04
 2.000005798E+02 8.587382317E+00 -9.011666407E-04
 2.000005798E+02 8.663744926E+00 -8.702495252E-04
 2.000005798E+02 8.740319252E+00 -8.392468444E-04
 2.000005798E+02 8.817110062E+00 -8.084888104E-04
 2.000005798E+02 8.894124031E+00 -7.776416605E-04
 2.000005798E+02 8.971365929E+00 -7.471448043E-04
 2.000005798E+02 9.048841476E+00 -7.165560964E-04
 2.000005798E+02 9.126556396E+00 -6.864327006E-04
 2.000005798E+02 9.204516411E+00 -6.562147755E-04
 2.000005798E+02 9.282728195E+00 -6.265862612E-04
 2.000005798E+02 9.361198425E+00 -5.968604819E-04
 2.000005798E+02 9.439931870E+00 -5.678583402E-04
 2.000005798E+02 9.518936157E+00 -5.387572455E-04
 2.000005798E+02 9.598217964E+00 -5.105228047E-04
 2.000005798E+02 9.677783012E+00 -4.821884795E-04
 2.000005798E+02 9.757639885E+00 -4.548727884E-04
 2.000005798E+02 9.837794304E+00 -4.274566309E-04
 2.000005798E+02 9.918253899E+00 -4.012198769E-04
 2.000005798E+02 9.999026299E+00 -3.748826566E-04
 2.000005798E+02 1.008011913E+01 -3.498911974E-04
 2.000005798E+02 1.016154003E+01 -3.248004359E-04
 2.000005798E+02 1.024329758E+01 -3.012249945E-04
 2.000005798E+02 1.032539940E+01 -2.775522880E-04
 2.000005798E+02 1.040785313E+01 -2.555635001E-04
 2.000005798E+02 1.049066830E+01 -2.334805758E-04
 2.000005798E+02 1.057385349E+01 -2.132417285E-04
 2.000005798E+02 1.065741730E+01 -1.929133141E-04
 2.000005798E+02 1.074136829E+01 -1.745735790E-04
 2.000005798E+02 1.082571697E+01 -1.561497484E-04
 2.000005798E+02 1.091047287E+01 -1.398320455E-04
 2.000005798E+02 1.099564457E+01 -1.234373049E-04
 2.000005798E+02 1.108124352E+01 -1.092280145E-04
 2.000005798E+02 1.116727924E+01 -9.494942788E-05
 2.000005798E+02 1.125376129E+01 -8.288554091E-05
 2.000005798E+02 1.134070206E+01 -7.076096517E-05
 2.000005798E+02 1.142811108E+01 -6.081859465E-05
 2.000005798E+02 1.151600075E+01 -5.082491043E-05
 2.000005798E+02 1.160438251E+01 -4.291316509E-05
 2.000005798E+02 1.169326687E+01 -3.495975034E-05
 2.000005798E+02 1.178266621E+01 -2.891968688E-05
 2.000005798E+02 1.187259388E+01 -2.284709080E-05
 2.000005798E+02 1.196306229E+01 -1.845789848E-05
 2.000005798E+02 1.205408287E+01 -1.404482737E-05
 2.000005798E+02 1.214566994E+01 -1.103901468E-05
 2.000005798E+02 1.223783779E+01 -8.016707397E-06
 2.000005798E+02 1.233059883E+01 -6.101586223E-06
 2.000005798E+02 1.242396736E+01 -4.176046787E-06
 2.000005798E+02 1.251795769E+01 -3.059834626E-06
 2.000005798E+02 1.261258602E+01 -1.937701427E-06
 2.000005798E+02 1.270786572E+01 -1.356077291E-06
 2.000005798E+02 1.280381393E+01 -7.715582910E-07
 2.000005798E+02 1.290044498E+01 -5.094138373E-07
 2.000005798E+02 1.299777603E+01 -2.461361532E-07
 2.000005798E+02 1.309582424E+01 -1.492609556E-07
 2.000005798E+02 1.319460487E+01 -5.209325948E-08
 2.000005798E+02 1.329413700E+01 -2.583878178E-08
 2.000005798E+02 1.339443684E+01 4.165003620E-10
 2.000005798E+02 1.349552441E+01 3.760717515E-09
 2.000005798E+02 1.359741783E+01 7.058698515E-09
 2.000005798E+02 1.370013523E+01 5.905755440E-09
 2.000005798E+02 1.380369759E+01 4.726723013E-09
 2.000005798E+02 1.390812302E+01 3.702907092E-09
 2.000005798E+02 1.401343441E+01 2.670271559E-09
 2.000005798E+02 1.411965084E+01 2.065502436E-09
 2.000005798E+02 1.422679424E+01 1.456988641E-09
 2.000005798E+02 1.433488750E+01 1.027787078E-09
 2.000005798E+02 1.444395161E+01 5.953555982E-10
 2.000005798E+02 1.455401039E+01 2.987467496E-10
 2.000005798E+02 1.466508770E+01 -2.731104730E-13
 2.000005798E+02 1.477720737E+01 -1.494541990E-10
 2.000005798E+02 1.489039326E+01 -2.996390913E-10
 2.000005798E+02 1.500467205E+01 -3.338749832E-10
 2.000005798E+02 1.512006855E+01 -3.680528660E-10
 2.000005798E+02 1.523660946E+01 -3.453521635E-10
 2.000005798E+02 1.535432148E+01 -3.221846123E-10
 2.000005798E+02 1.547323322E+01 -2.861182680E-10
 2.000005798E+02 1.559337330E+01 -2.495919027E-10
 2.000005798E+02 1.571476936E+01 -2.189887022E-10
 2.000005798E+02 1.583745193E+01 -1.880560846E-10
 2.000005798E+02 1.596145058E+01 -1.659914012E-10
 2.000005798E+02 1.608679771E+01 -1.437057418E-10
 2.000005798E+02 1.621352577E+01 -1.279068657E-10
 2.000005798E+02 1.634166527E+01 -1.119493873E-10
 2.000005798E+02 1.647125053E+01 -1.000545410E-10
 2.000005798E+02 1.660231590E+01 -8.803516943E-11
 2.000005798E+02 1.673489571E+01 -7.878862840E-11
 2.000005798E+02 1.686902809E+01 -6.944173708E-11
 2.000005798E+02 1.700474739E+01 -6.232661609E-11
 2.000005798E+02 1.714209175E+01 -5.513323825E-11
 2.000005798E+02 1.728109741E+01 -4.987253319E-11
 2.000005798E+02 1.742180824E+01 -4.455399244E-11
 2.000005798E+02 1.756426048E+01 -4.087139308E-11
 2.000005798E+02 1.770849800E+01 -3.714890548E-11
 2.000005798E+02 1.785456276E+01 -3.473287630E-11
 2.000005798E+02 1.800249481E+01 -3.229136750E-11