title="tecplot surface data vs x (2D)"
variables="x","z","cp","skinfr","yplus"
zone t=nb_6_seg_1, i=     447, f=point
  0.100000000000000E-02  0.000000000000000E+00 -0.782458353549128E-02  0.825047589367314E-02  0.155202271161741E+00
  0.200196836704000E-02  0.000000000000000E+00  0.513457706096438E-02  0.490480386778621E-02  0.122715378766581E+00
  0.300592441746000E-02  0.000000000000000E+00  0.662772868691748E-02  0.530475605827265E-02  0.127649752646146E+00
  0.401188759785000E-02  0.000000000000000E+00  0.844251345493469E-02  0.553249175765015E-02  0.130377251009258E+00
  0.501987748663000E-02  0.000000000000000E+00  0.915229391741062E-02  0.560303491348083E-02  0.131209542494716E+00
  0.602991379576000E-02  0.000000000000000E+00  0.946882563629403E-02  0.558918324453416E-02  0.131047704887019E+00
  0.704201637241000E-02  0.000000000000000E+00  0.956492393149639E-02  0.553507104713275E-02  0.130411693392198E+00
  0.805620520068000E-02  0.000000000000000E+00  0.957804527281939E-02  0.546733304627261E-02  0.129611198364275E+00
  0.907250040328000E-02  0.000000000000000E+00  0.955725665346963E-02  0.539874575814825E-02  0.128795659482735E+00
  0.100909222433000E-01  0.000000000000000E+00  0.952156752034464E-02  0.533392071704585E-02  0.128020080567489E+00
  0.111114911260000E-01  0.000000000000000E+00  0.947658982122393E-02  0.527360264719762E-02  0.127294155267933E+00
  0.121342276006000E-01  0.000000000000000E+00  0.942473037624752E-02  0.521726398906424E-02  0.126612336251248E+00
  0.131591523619000E-01  0.000000000000000E+00  0.936794386677661E-02  0.516425015477925E-02  0.125967364497155E+00
  0.141862862524000E-01  0.000000000000000E+00  0.930815479588398E-02  0.511410857765243E-02  0.125354270289957E+00
  0.152156502642000E-01  0.000000000000000E+00  0.924714984791773E-02  0.506658003096771E-02  0.124770337236990E+00
  0.162472655402000E-01  0.000000000000000E+00  0.918614216459985E-02  0.502150469392341E-02  0.124214002917788E+00
  0.172811533771000E-01  0.000000000000000E+00  0.912592129156556E-02  0.497874943594717E-02  0.123683987603054E+00
  0.183173352262000E-01  0.000000000000000E+00  0.906700561469671E-02  0.493818148713218E-02  0.123178975922817E+00
  0.193558326962000E-01  0.000000000000000E+00  0.900956210519999E-02  0.489966548868732E-02  0.122697582157355E+00
  0.203966675547000E-01  0.000000000000000E+00  0.895372627062503E-02  0.486306174565528E-02  0.122238329752966E+00
  0.214398617304000E-01  0.000000000000000E+00  0.889949923899807E-02  0.482822512214581E-02  0.121799638478375E+00
  0.224854373150000E-01  0.000000000000000E+00  0.884675983534430E-02  0.479501042857384E-02  0.121379893551021E+00
  0.235334165652000E-01  0.000000000000000E+00  0.879542884458478E-02  0.476328342117679E-02  0.120977587485317E+00
  0.245838219052000E-01  0.000000000000000E+00  0.874547842580739E-02  0.473292826018039E-02  0.120591419181950E+00
  0.256366759281000E-01  0.000000000000000E+00  0.869686395781650E-02  0.470384508837991E-02  0.120220268106695E+00
  0.266920013986000E-01  0.000000000000000E+00  0.864951457939840E-02  0.467594304559170E-02  0.119863109124578E+00
  0.277498212550000E-01  0.000000000000000E+00  0.860335378985048E-02  0.464913623038328E-02  0.119518963395101E+00
  0.288101586112000E-01  0.000000000000000E+00  0.855830638707422E-02  0.462334299090964E-02  0.119186891073288E+00
  0.298730367591000E-01  0.000000000000000E+00  0.851431314427950E-02  0.459848707855854E-02  0.118866007811749E+00
  0.309384791708000E-01  0.000000000000000E+00  0.847133549794884E-02  0.457450079445009E-02  0.118555527206183E+00
  0.320065095008000E-01  0.000000000000000E+00  0.842936252054560E-02  0.455132747440786E-02  0.118254795093823E+00
  0.330771515884000E-01  0.000000000000000E+00  0.838838674750114E-02  0.452891975326754E-02  0.117963269158987E+00
  0.341504294599000E-01  0.000000000000000E+00  0.834832469772832E-02  0.450723492298694E-02  0.117680460164326E+00
  0.352263673311000E-01  0.000000000000000E+00  0.830910379026210E-02  0.448623193500720E-02  0.117405893853732E+00
  0.363049896097000E-01  0.000000000000000E+00  0.827070929055556E-02  0.446587164795544E-02  0.117139114805719E+00
  0.373863208975000E-01  0.000000000000000E+00  0.823315115155194E-02  0.444611799532534E-02  0.116879702275143E+00
  0.384703859929000E-01  0.000000000000000E+00  0.819640588343797E-02  0.442693774321838E-02  0.116627267579229E+00
  0.395572098938000E-01  0.000000000000000E+00  0.816037659579732E-02  0.440829891286627E-02  0.116381433867143E+00
  0.406468177996000E-01  0.000000000000000E+00  0.812502472795946E-02  0.439017035831340E-02  0.116141831041691E+00
  0.417392351139000E-01  0.000000000000000E+00  0.809048325103471E-02  0.437252349989480E-02  0.115908119020647E+00
  0.428344874472000E-01  0.000000000000000E+00  0.805670467821492E-02  0.435533245922463E-02  0.115679989770351E+00
  0.439326006196000E-01  0.000000000000000E+00  0.802352039746308E-02  0.433857115994338E-02  0.115457129260026E+00
  0.450336006631000E-01  0.000000000000000E+00  0.799101998050222E-02  0.432221112986929E-02  0.115239188390628E+00
  0.461375138246000E-01  0.000000000000000E+00  0.795902767024887E-02  0.430622111817141E-02  0.115025777514853E+00
  0.472443665687000E-01  0.000000000000000E+00  0.792730988263030E-02  0.429056943489613E-02  0.114816497669449E+00
  0.483541855800000E-01  0.000000000000000E+00  0.789599186053401E-02  0.427522955743529E-02  0.114611015996943E+00
  0.494669977666000E-01  0.000000000000000E+00  0.786501505286744E-02  0.426018343666341E-02  0.114409110659362E+00
  0.505828302621000E-01  0.000000000000000E+00  0.783441437744527E-02  0.424542033956781E-02  0.114210656315340E+00
  0.517017104295000E-01  0.000000000000000E+00  0.780427767068817E-02  0.423093420602388E-02  0.114015589394197E+00
  0.528236658631000E-01  0.000000000000000E+00  0.777454417349999E-02  0.421672073788193E-02  0.113823869312132E+00
  0.539487243923000E-01  0.000000000000000E+00  0.774531183334830E-02  0.420277536870795E-02  0.113635451280995E+00
  0.550769140839000E-01  0.000000000000000E+00  0.771651197100416E-02  0.418909223395104E-02  0.113450272319770E+00
  0.562082632459000E-01  0.000000000000000E+00  0.768819583852570E-02  0.417566364793270E-02  0.113268244044101E+00
  0.573428004298000E-01  0.000000000000000E+00  0.766031465531431E-02  0.416248063420627E-02  0.113089259694463E+00
  0.584805544345000E-01  0.000000000000000E+00  0.763287189221267E-02  0.414953462505336E-02  0.112913217155608E+00
  0.596215543087000E-01  0.000000000000000E+00  0.760586531638780E-02  0.413681896961574E-02  0.112740039569360E+00
  0.607658293550000E-01  0.000000000000000E+00  0.757926759927173E-02  0.412432847061062E-02  0.112569669201649E+00
  0.619134091323000E-01  0.000000000000000E+00  0.755308606143717E-02  0.411205782823687E-02  0.112402046350691E+00
  0.630643234596000E-01  0.000000000000000E+00  0.752729217668684E-02  0.410000084788155E-02  0.112237098495244E+00
  0.642186024196000E-01  0.000000000000000E+00  0.750186834926257E-02  0.408815074775512E-02  0.112074744448815E+00
  0.653762763615000E-01  0.000000000000000E+00  0.747681177961804E-02  0.407650094398016E-02  0.111914905100448E+00
  0.665373759048000E-01  0.000000000000000E+00  0.745210371706971E-02  0.406504547294556E-02  0.111757509243752E+00
  0.677019319429000E-01  0.000000000000000E+00  0.742775122411102E-02  0.405377892439550E-02  0.111602492728849E+00
  0.688699756464000E-01  0.000000000000000E+00  0.740373971214181E-02  0.404269603017018E-02  0.111449792833659E+00
  0.700415384670000E-01  0.000000000000000E+00  0.738003040613127E-02  0.403179131545166E-02  0.111299343493429E+00
  0.712166521409000E-01  0.000000000000000E+00  0.735665726225061E-02  0.402105916086564E-02  0.111151076154611E+00
  0.723953486927000E-01  0.000000000000000E+00  0.733354494308891E-02  0.401049400329638E-02  0.111004922541005E+00
  0.735776604393000E-01  0.000000000000000E+00  0.731075126203518E-02  0.400009063454102E-02  0.110860818823242E+00
  0.747636199934000E-01  0.000000000000000E+00  0.728820271607620E-02  0.398984441272430E-02  0.110718708584898E+00
  0.759532602674000E-01  0.000000000000000E+00  0.726596385234154E-02  0.397975115118924E-02  0.110578541334392E+00
  0.771466144779000E-01  0.000000000000000E+00  0.724395791882961E-02  0.396980674648531E-02  0.110440267370911E+00
  0.783437161489000E-01  0.000000000000000E+00  0.722224235397536E-02  0.396000687905429E-02  0.110303833651860E+00
  0.795445991166000E-01  0.000000000000000E+00  0.720079004086692E-02  0.395034666565747E-02  0.110169178884752E+00
  0.807492975331000E-01  0.000000000000000E+00  0.717952930844630E-02  0.394082071736152E-02  0.110036234327507E+00
  0.819578458705000E-01  0.000000000000000E+00  0.715854919794027E-02  0.393142437598327E-02  0.109904941078731E+00
  0.831702789256000E-01  0.000000000000000E+00  0.713774843344054E-02  0.392215447289645E-02  0.109775260713954E+00
  0.843866318239000E-01  0.000000000000000E+00  0.711722177838230E-02  0.391300883875826E-02  0.109647168574865E+00
  0.856069400241000E-01  0.000000000000000E+00  0.709692147672041E-02  0.390398521651070E-02  0.109520638547054E+00
  0.868312393222000E-01  0.000000000000000E+00  0.707679841777902E-02  0.389508060011529E-02  0.109395633805920E+00
  0.880595658565000E-01  0.000000000000000E+00  0.705693595718212E-02  0.388629171686518E-02  0.109272113567157E+00
  0.892919561122000E-01  0.000000000000000E+00  0.703720332381356E-02  0.387761536840071E-02  0.109150037826815E+00
  0.905284469256000E-01  0.000000000000000E+00  0.701771514126965E-02  0.386904881916295E-02  0.109029372921808E+00
  0.917690754890000E-01  0.000000000000000E+00  0.699844981047074E-02  0.386058980402758E-02  0.108910091570587E+00
  0.930138793557000E-01  0.000000000000000E+00  0.697929415424284E-02  0.385223574622947E-02  0.108792161887095E+00
  0.942628964449000E-01  0.000000000000000E+00  0.696037864794663E-02  0.384398403427700E-02  0.108675551377715E+00
  0.955161650461000E-01  0.000000000000000E+00  0.694161676876145E-02  0.383583224100011E-02  0.108560229927479E+00
  0.967737238250000E-01  0.000000000000000E+00  0.692301190259791E-02  0.382777788491210E-02  0.108446166488376E+00
  0.980356118277000E-01  0.000000000000000E+00  0.690463050785033E-02  0.381981867059813E-02  0.108333332484469E+00
  0.993018684865000E-01  0.000000000000000E+00  0.688634405939962E-02  0.381195219076403E-02  0.108221697545873E+00
  0.100572533625000E+00  0.000000000000000E+00  0.686824206621742E-02  0.380417614213365E-02  0.108111232688509E+00
  0.101847647464000E+00  0.000000000000000E+00  0.685035464258783E-02  0.379648863377131E-02  0.108001914596700E+00
  0.103127250624000E+00  0.000000000000000E+00  0.683251534006058E-02  0.378888740686554E-02  0.107893714533133E+00
  0.104411384137000E+00  0.000000000000000E+00  0.681487998740618E-02  0.378137032928045E-02  0.107786605530356E+00
  0.105700089445000E+00  0.000000000000000E+00  0.679744223453754E-02  0.377393580729785E-02  0.107680568093390E+00
  0.106993408409000E+00  0.000000000000000E+00  0.678002993300041E-02  0.376658172884168E-02  0.107575575155491E+00
  0.108291383317000E+00  0.000000000000000E+00  0.676281314728903E-02  0.375930605342688E-02  0.107471600668839E+00
  0.109594056886000E+00  0.000000000000000E+00  0.674577321449091E-02  0.375210734183995E-02  0.107368626991954E+00
  0.110901472269000E+00  0.000000000000000E+00  0.672876289376750E-02  0.374498362681752E-02  0.107266628765226E+00
  0.112213673062000E+00  0.000000000000000E+00  0.671193118826193E-02  0.373793274975744E-02  0.107165577884507E+00
  0.113530703311000E+00  0.000000000000000E+00  0.669527049922720E-02  0.373095266661217E-02  0.107065447690547E+00
  0.114852607515000E+00  0.000000000000000E+00  0.667862351886158E-02  0.372404062683602E-02  0.106966201197432E+00
  0.116179430637000E+00  0.000000000000000E+00  0.666214187129104E-02  0.371719442715699E-02  0.106867809260425E+00
  0.117511218104000E+00  0.000000000000000E+00  0.664583989524419E-02  0.371041343216631E-02  0.106770265107022E+00
  0.118848015822000E+00  0.000000000000000E+00  0.662955353494413E-02  0.370369705575290E-02  0.106673562547120E+00
  0.120189870174000E+00  0.000000000000000E+00  0.661341010757147E-02  0.369704441676800E-02  0.106577691215008E+00
  0.121536828034000E+00  0.000000000000000E+00  0.659743895787506E-02  0.369045483676307E-02  0.106482643582959E+00
  0.122888936770000E+00  0.000000000000000E+00  0.658150037129752E-02  0.368392705590720E-02  0.106388403596729E+00
  0.124246244251000E+00  0.000000000000000E+00  0.656567070312602E-02  0.367745949141583E-02  0.106294950553090E+00
  0.125608798856000E+00  0.000000000000000E+00  0.655000000664747E-02  0.367105111711737E-02  0.106202271715474E+00
  0.126976649479000E+00  0.000000000000000E+00  0.653439113706966E-02  0.366470081936882E-02  0.106110352932752E+00
  0.128349845539000E+00  0.000000000000000E+00  0.651884660938081E-02  0.365840710794769E-02  0.106019174584223E+00
  0.129728436987000E+00  0.000000000000000E+00  0.650345023007442E-02  0.365216893331871E-02  0.105928723408705E+00
  0.131112474309000E+00  0.000000000000000E+00  0.648815704838514E-02  0.364598542620546E-02  0.105838988615043E+00
  0.132502008543000E+00  0.000000000000000E+00  0.647287882851336E-02  0.363985519641627E-02  0.105749951791559E+00
  0.133897091277000E+00  0.000000000000000E+00  0.645773635242288E-02  0.363377709103443E-02  0.105661597999568E+00
  0.135297774663000E+00  0.000000000000000E+00  0.644273085668802E-02  0.362775050851725E-02  0.105573920197758E+00
  0.136704111424000E+00  0.000000000000000E+00  0.642773482020401E-02  0.362177436705426E-02  0.105486904243170E+00
  0.138116154862000E+00  0.000000000000000E+00  0.641281373723165E-02  0.361584728950642E-02  0.105400531726529E+00
  0.139533958866000E+00  0.000000000000000E+00  0.639802615858593E-02  0.360996851544722E-02  0.105314793185378E+00
  0.140957577921000E+00  0.000000000000000E+00  0.638331329197836E-02  0.360413732686307E-02  0.105229679637012E+00
  0.142387067116000E+00  0.000000000000000E+00  0.636860733298812E-02  0.359835245913761E-02  0.105145174093860E+00
  0.143822482155000E+00  0.000000000000000E+00  0.635403013901240E-02  0.359261299374142E-02  0.105061264657762E+00
  0.145263879365000E+00  0.000000000000000E+00  0.633957785706978E-02  0.358691854510634E-02  0.104977947107435E+00
  0.146711315702000E+00  0.000000000000000E+00  0.632511777910143E-02  0.358126816865567E-02  0.104895208941583E+00
  0.148164848767000E+00  0.000000000000000E+00  0.631071807227768E-02  0.357566060524256E-02  0.104813033103773E+00
  0.149624536808000E+00  0.000000000000000E+00  0.629644508481115E-02  0.357009524969077E-02  0.104731412092945E+00
  0.151090438737000E+00  0.000000000000000E+00  0.628223641277855E-02  0.356457157055961E-02  0.104650339356912E+00
  0.152562614133000E+00  0.000000000000000E+00  0.626802540977721E-02  0.355908845792430E-02  0.104569799830537E+00
  0.154041123258000E+00  0.000000000000000E+00  0.625391857491823E-02  0.355364503992485E-02  0.104489781986357E+00
  0.155526027063000E+00  0.000000000000000E+00  0.623992186431023E-02  0.354824101219206E-02  0.104410282551982E+00
  0.157017387201000E+00  0.000000000000000E+00  0.622593648163290E-02  0.354287569570598E-02  0.104331292645650E+00
  0.158515266035000E+00  0.000000000000000E+00  0.621197595693631E-02  0.353754800646245E-02  0.104252797457302E+00
  0.160019726651000E+00  0.000000000000000E+00  0.619812620048351E-02  0.353225737172439E-02  0.104174789718619E+00
  0.161530832868000E+00  0.000000000000000E+00  0.618435971086065E-02  0.352700346253771E-02  0.104097265648633E+00
  0.163048649252000E+00  0.000000000000000E+00  0.617059070864448E-02  0.352178518262814E-02  0.104020210077436E+00
  0.164573241120000E+00  0.000000000000000E+00  0.615686079515264E-02  0.351660090415402E-02  0.103943600008417E+00
  0.166104674559000E+00  0.000000000000000E+00  0.614322691887865E-02  0.351144948676252E-02  0.103867419608547E+00
  0.167643016437000E+00  0.000000000000000E+00  0.612965794677400E-02  0.350633041589505E-02  0.103791662182880E+00
  0.169188334409000E+00  0.000000000000000E+00  0.611609009148235E-02  0.350124333954534E-02  0.103716323404696E+00
  0.170740696935000E+00  0.000000000000000E+00  0.610257462421318E-02  0.349618810740701E-02  0.103641401989340E+00
  0.172300173293000E+00  0.000000000000000E+00  0.608915481108736E-02  0.349116488294349E-02  0.103566901301210E+00
  0.173866833586000E+00  0.000000000000000E+00  0.607578773836881E-02  0.348617356472637E-02  0.103492820704417E+00
  0.175440748759000E+00  0.000000000000000E+00  0.606241677485781E-02  0.348121339084511E-02  0.103419149745661E+00
  0.177021990614000E+00  0.000000000000000E+00  0.604909749823968E-02  0.347628358790052E-02  0.103345877841661E+00
  0.178610631817000E+00  0.000000000000000E+00  0.603587463541119E-02  0.347138390915844E-02  0.103273002201420E+00
  0.180206745919000E+00  0.000000000000000E+00  0.602268438587572E-02  0.346651403935271E-02  0.103200518923573E+00
  0.181810407363000E+00  0.000000000000000E+00  0.600948399301756E-02  0.346167314151012E-02  0.103128416336460E+00
  0.183421691503000E+00  0.000000000000000E+00  0.599633983145680E-02  0.345686052542089E-02  0.103056684998647E+00
  0.185040674618000E+00  0.000000000000000E+00  0.598329092005301E-02  0.345207605615265E-02  0.102985323698478E+00
  0.186667433923000E+00  0.000000000000000E+00  0.597026256426198E-02  0.344731943115823E-02  0.102914328633874E+00
  0.188302047589000E+00  0.000000000000000E+00  0.595721799822353E-02  0.344258980106038E-02  0.102843687847632E+00
  0.189944594753000E+00  0.000000000000000E+00  0.594423009946705E-02  0.343788652349643E-02  0.102773392520685E+00
  0.191595155540000E+00  0.000000000000000E+00  0.593132993358709E-02  0.343320952268053E-02  0.102703442251482E+00
  0.193253811070000E+00  0.000000000000000E+00  0.591844520175799E-02  0.342855854776397E-02  0.102633833936824E+00
  0.194920643485000E+00  0.000000000000000E+00  0.590554603385751E-02  0.342393282721700E-02  0.102564556691458E+00
  0.196595735954000E+00  0.000000000000000E+00  0.589269611472876E-02  0.341933176494473E-02  0.102495602300192E+00
  0.198279172699000E+00  0.000000000000000E+00  0.587992688006705E-02  0.341475527667884E-02  0.102426970173647E+00
  0.199971039007000E+00  0.000000000000000E+00  0.586717392711148E-02  0.341020314195666E-02  0.102358657603655E+00
  0.201671421251000E+00  0.000000000000000E+00  0.585440771034523E-02  0.340567465913510E-02  0.102290654665750E+00
  0.203380406902000E+00  0.000000000000000E+00  0.584167814061359E-02  0.340116923698369E-02  0.102222953132912E+00
  0.205098084553000E+00  0.000000000000000E+00  0.582902329874077E-02  0.339668676521331E-02  0.102155551972612E+00
  0.206824543936000E+00  0.000000000000000E+00  0.581639083421396E-02  0.339222709289205E-02  0.102088449470764E+00
  0.208559875938000E+00  0.000000000000000E+00  0.580374661070447E-02  0.338778961225335E-02  0.102021637030645E+00
  0.210304172623000E+00  0.000000000000000E+00  0.579111823422502E-02  0.338337368648005E-02  0.101955105654792E+00
  0.212057527251000E+00  0.000000000000000E+00  0.577855924688286E-02  0.337897913119723E-02  0.101888853151358E+00
  0.213820034298000E+00  0.000000000000000E+00  0.576603756688840E-02  0.337460589546090E-02  0.101822879273406E+00
  0.215591789475000E+00  0.000000000000000E+00  0.575350375376609E-02  0.337025350008313E-02  0.101757177281811E+00
  0.217372889750000E+00  0.000000000000000E+00  0.574096206811576E-02  0.336592124494485E-02  0.101691737138987E+00
  0.219163433371000E+00  0.000000000000000E+00  0.572848524891098E-02  0.336160887243954E-02  0.101626555508932E+00
  0.220963519883000E+00  0.000000000000000E+00  0.571606608399230E-02  0.335731645639693E-02  0.101561633997560E+00
  0.222773250154000E+00  0.000000000000000E+00  0.570362463778570E-02  0.335304367272425E-02  0.101496968141140E+00
  0.224592726396000E+00  0.000000000000000E+00  0.569117190628101E-02  0.334878982418500E-02  0.101432547866024E+00
  0.226422052188000E+00  0.000000000000000E+00  0.567875746884264E-02  0.334455452212219E-02  0.101368367797795E+00
  0.228261332499000E+00  0.000000000000000E+00  0.566640066548433E-02  0.334033777507204E-02  0.101304428533265E+00
  0.230110673713000E+00  0.000000000000000E+00  0.565404423439172E-02  0.333613942543987E-02  0.101240728096777E+00
  0.231970183654000E+00  0.000000000000000E+00  0.564167340304828E-02  0.333195892961052E-02  0.101177258662046E+00
  0.233839971608000E+00  0.000000000000000E+00  0.562931054604032E-02  0.332779579398364E-02  0.101114013193234E+00
  0.235720148350000E+00  0.000000000000000E+00  0.561700311774160E-02  0.332364992161689E-02  0.101050990668444E+00
  0.237610826171000E+00  0.000000000000000E+00  0.560472060500456E-02  0.331952126013867E-02  0.100988190687301E+00
  0.239512118903000E+00  0.000000000000000E+00  0.559242050404299E-02  0.331540918747399E-02  0.100925604151058E+00
  0.241424141947000E+00  0.000000000000000E+00  0.558009520828280E-02  0.331131258832816E-02  0.100863214477483E+00
  0.243347012301000E+00  0.000000000000000E+00  0.556782221217134E-02  0.330723069396938E-02  0.100801010372031E+00
  0.245280848585000E+00  0.000000000000000E+00  0.555560484447445E-02  0.330316347560077E-02  0.100738991740069E+00
  0.247225771073000E+00  0.000000000000000E+00  0.554335849351733E-02  0.329911107336267E-02  0.100677161005196E+00
  0.249181901724000E+00  0.000000000000000E+00  0.553108895636121E-02  0.329507340405231E-02  0.100615517233323E+00
  0.251149364206000E+00  0.000000000000000E+00  0.551884169539393E-02  0.329105045431446E-02  0.100554060611066E+00
  0.253128283932000E+00  0.000000000000000E+00  0.550665129744094E-02  0.328704241320626E-02  0.100492794392696E+00
  0.255118788089000E+00  0.000000000000000E+00  0.549446327811700E-02  0.328304927198562E-02  0.100431718755239E+00
  0.257121005672000E+00  0.000000000000000E+00  0.548224928741720E-02  0.327907055639985E-02  0.100370826751397E+00
  0.259135067513000E+00  0.000000000000000E+00  0.547001906057007E-02  0.327510570881346E-02  0.100310110197685E+00
  0.261161106317000E+00  0.000000000000000E+00  0.545784173608796E-02  0.327115462508902E-02  0.100249567865046E+00
  0.263199256698000E+00  0.000000000000000E+00  0.544570227355752E-02  0.326721745470786E-02  0.100189202347592E+00
  0.265249655208000E+00  0.000000000000000E+00  0.543352497775088E-02  0.326329393583459E-02  0.100129009890672E+00
  0.267312440379000E+00  0.000000000000000E+00  0.542131783085439E-02  0.325938345053570E-02  0.100068981318770E+00
  0.269387752757000E+00  0.000000000000000E+00  0.540913504051436E-02  0.325548569544740E-02  0.100009112318420E+00
  0.271475734935000E+00  0.000000000000000E+00  0.539700231338187E-02  0.325160078548537E-02  0.999494049564637E-01
  0.273576531599000E+00  0.000000000000000E+00  0.538485371833129E-02  0.324772867087476E-02  0.998898587126953E-01
  0.275690289562000E+00  0.000000000000000E+00  0.537267234209025E-02  0.324386886173052E-02  0.998304663070644E-01
  0.277817157802000E+00  0.000000000000000E+00  0.536047407253707E-02  0.324002086368757E-02  0.997712204321071E-01
  0.279957287508000E+00  0.000000000000000E+00  0.534832589763453E-02  0.323618464593171E-02  0.997121209191436E-01
  0.282110832117000E+00  0.000000000000000E+00  0.533620327354743E-02  0.323236036197323E-02  0.996531703744486E-01
  0.284277947361000E+00  0.000000000000000E+00  0.532403226516376E-02  0.322854773149969E-02  0.995943646836736E-01
  0.286458791305000E+00  0.000000000000000E+00  0.531183144412774E-02  0.322474617622446E-02  0.995356951830901E-01
  0.288653524394000E+00  0.000000000000000E+00  0.529964932398969E-02  0.322095544559926E-02  0.994771582931063E-01
  0.290862309501000E+00  0.000000000000000E+00  0.528750579761475E-02  0.321717564957458E-02  0.994187559562729E-01
  0.293085311970000E+00  0.000000000000000E+00  0.527533982330741E-02  0.321340673154547E-02  0.993604874941568E-01
  0.295322699666000E+00  0.000000000000000E+00  0.526314077450455E-02  0.320964825086915E-02  0.993023462992747E-01
  0.297574643019000E+00  0.000000000000000E+00  0.525091629326775E-02  0.320589975415091E-02  0.992443256022085E-01
  0.299841315083000E+00  0.000000000000000E+00  0.523873093577487E-02  0.320216119979845E-02  0.991864250131811E-01
  0.302122891576000E+00  0.000000000000000E+00  0.522656842922536E-02  0.319843274333192E-02  0.991286471367060E-01
  0.304419550941000E+00  0.000000000000000E+00  0.521435285284160E-02  0.319471416147328E-02  0.990709886728385E-01
  0.306731474395000E+00  0.000000000000000E+00  0.520210499715163E-02  0.319100493500273E-02  0.990134417749505E-01
  0.309058845984000E+00  0.000000000000000E+00  0.518985930614280E-02  0.318730479685741E-02  0.989560025333266E-01
  0.311401852641000E+00  0.000000000000000E+00  0.517764244236821E-02  0.318361381583719E-02  0.988986722190693E-01
  0.313760684241000E+00  0.000000000000000E+00  0.516540912986236E-02  0.317993198320450E-02  0.988414508546738E-01
  0.316135533661000E+00  0.000000000000000E+00  0.515313584661551E-02  0.317625895227516E-02  0.987843332087104E-01
  0.318526596838000E+00  0.000000000000000E+00  0.514083136160526E-02  0.317259430030998E-02  0.987273128999911E-01
  0.320934072836000E+00  0.000000000000000E+00  0.512854755626727E-02  0.316893793276458E-02  0.986703886640777E-01
  0.323358163901000E+00  0.000000000000000E+00  0.511628108334256E-02  0.316528996491266E-02  0.986135624557947E-01
  0.325799075532000E+00  0.000000000000000E+00  0.510396706143723E-02  0.316165024674156E-02  0.985568320637202E-01
  0.328257016546000E+00  0.000000000000000E+00  0.509161785755552E-02  0.315801834570019E-02  0.985001908987458E-01
  0.330732199141000E+00  0.000000000000000E+00  0.507924806013106E-02  0.315439394671207E-02  0.984436342273267E-01
  0.333224838973000E+00  0.000000000000000E+00  0.506689788320231E-02  0.315077704810254E-02  0.983871621940183E-01
  0.335735155220000E+00  0.000000000000000E+00  0.505454319535018E-02  0.314716770768547E-02  0.983307758286290E-01
  0.338263370659000E+00  0.000000000000000E+00  0.504213815545012E-02  0.314356568682844E-02  0.982744715116610E-01
  0.340809711741000E+00  0.000000000000000E+00  0.502969409737248E-02  0.313997057140355E-02  0.982182429118694E-01
  0.343374408663000E+00  0.000000000000000E+00  0.501724681843476E-02  0.313638217923641E-02  0.981620873435870E-01
  0.345957695453000E+00  0.000000000000000E+00  0.500481263512479E-02  0.313280057799569E-02  0.981060059981567E-01
  0.348559810045000E+00  0.000000000000000E+00  0.499234160073707E-02  0.312922572524808E-02  0.980499983075570E-01
  0.351180994364000E+00  0.000000000000000E+00  0.497983053525981E-02  0.312565730961102E-02  0.979940594953378E-01
  0.353821494410000E+00  0.000000000000000E+00  0.496727410342108E-02  0.312209495298078E-02  0.979381837636488E-01
  0.356481560345000E+00  0.000000000000000E+00  0.495472761439083E-02  0.311853843256013E-02  0.978823677595188E-01
  0.359161446581000E+00  0.000000000000000E+00  0.494218785598458E-02  0.311498746556889E-02  0.978266071368398E-01
  0.361861411874000E+00  0.000000000000000E+00  0.492958551364823E-02  0.311144137568376E-02  0.977708913199884E-01
  0.364581719413000E+00  0.000000000000000E+00  0.491693591769815E-02  0.310789951801903E-02  0.977152102433768E-01
  0.367322636920000E+00  0.000000000000000E+00  0.490426107751280E-02  0.310436193513057E-02  0.976595646707614E-01
  0.370084436746000E+00  0.000000000000000E+00  0.489159776856374E-02  0.310082919261513E-02  0.976039635857836E-01
  0.372867395974000E+00  0.000000000000000E+00  0.487891183269846E-02  0.309730168984281E-02  0.975484133315944E-01
  0.375671796523000E+00  0.000000000000000E+00  0.486617432736227E-02  0.309377930373276E-02  0.974929120217266E-01
  0.378497925251000E+00  0.000000000000000E+00  0.485338081763447E-02  0.309026165013860E-02  0.974374536880181E-01
  0.381346074068000E+00  0.000000000000000E+00  0.484058121430486E-02  0.308674856910135E-02  0.973820359186797E-01
  0.384216540046000E+00  0.000000000000000E+00  0.482778837084570E-02  0.308324016478840E-02  0.973266604316812E-01
  0.387109625537000E+00  0.000000000000000E+00  0.481493996390414E-02  0.307973638273764E-02  0.972713263997086E-01
  0.390025638288000E+00  0.000000000000000E+00  0.480203468053838E-02  0.307623686471658E-02  0.972160282131792E-01
  0.392964891565000E+00  0.000000000000000E+00  0.478907977196392E-02  0.307274127260207E-02  0.971607606111746E-01
  0.395927704274000E+00  0.000000000000000E+00  0.477612924727160E-02  0.306924957891823E-02  0.971055232448755E-01
  0.398914401097000E+00  0.000000000000000E+00  0.476316399102997E-02  0.306576189107058E-02  0.970503178525867E-01
  0.401925312614000E+00  0.000000000000000E+00  0.475013004706616E-02  0.306227803660938E-02  0.969951417142780E-01
  0.404960775445000E+00  0.000000000000000E+00  0.473702902348272E-02  0.305879760589819E-02  0.969399883862702E-01
  0.408021132388000E+00  0.000000000000000E+00  0.472390356081360E-02  0.305532038721722E-02  0.968848545895500E-01
  0.411106732560000E+00  0.000000000000000E+00  0.471077794441824E-02  0.305184646393605E-02  0.968297416943871E-01
  0.414217931545000E+00  0.000000000000000E+00  0.469760220092993E-02  0.304837584597083E-02  0.967746498612485E-01
  0.417355091545000E+00  0.000000000000000E+00  0.468435779723711E-02  0.304490822906063E-02  0.967195742633601E-01
  0.420518581537000E+00  0.000000000000000E+00  0.467104333681404E-02  0.304144323192763E-02  0.966645088859162E-01
  0.423708777428000E+00  0.000000000000000E+00  0.465772657554098E-02  0.303798079222546E-02  0.966094527987647E-01
  0.426926062226000E+00  0.000000000000000E+00  0.464439886257598E-02  0.303452106495451E-02  0.965544084756701E-01
  0.430170826202000E+00  0.000000000000000E+00  0.463098652494657E-02  0.303106391904491E-02  0.964993737984357E-01