 VARIABLES =J,Y,Advec,Prod,PreStr,Diffu,Dissip,Comp		,Force,Total
 ZONE T="Tau_11 X=  0.000000000000000E+000 "
           1   1.00000000000000       2.434126709150787E-006
  0.000000000000000E+000 -1.735001160878428E-006  5.479115503468255E-002
 -5.479935349110537E-002  1.735001160878428E-006  0.000000000000000E+000
 -5.764329713665702E-006
           2   1.00106460177068      -2.886874820732454E-006
  3.727315063825458E-006  9.063612084535870E-004  5.254456958287537E-002
 -5.342795798318695E-002 -1.895458979552820E-005 -4.646298692266907E-006
  2.123598973065780E-007
           3   1.00215091489022      -1.846308932298113E-005
  3.335835165781551E-005  1.449906415313724E-003  5.138140608100738E-002
 -5.280501829867698E-002 -3.034594340392874E-005 -9.437477230150903E-006
  1.406039344875089E-006
           4   1.00325935821868      -6.582412228986946E-005
  1.266906967196896E-004  1.661224475737021E-003  5.111508831436424E-002
 -5.278033646535359E-002 -3.693982245800921E-005 -1.435164419636407E-005
  5.551432523117523E-006
           5   1.00439035768712      -1.625012624849530E-004
  3.368131138118924E-004  1.567423019601395E-003  5.155876371406297E-002
 -5.323241946532479E-002 -3.862081365718975E-005 -1.936479919971098E-005
  1.009350680961768E-005
           6   1.00554434637365      -3.287914906980542E-004
  7.340478870129586E-004  1.196332750224815E-003  5.251744676466719E-002
 -5.404160440335938E-002 -3.694512083595267E-005 -2.444933591863282E-005
  1.603705109293829E-005
           7   1.00672176457824      -5.859960677138454E-004
  1.407690143879809E-003  5.736400894053219E-004  5.378385763576200E-002
 -5.509323109384825E-002 -3.344027803326372E-005 -2.957433390711928E-005
  2.294609554464887E-005
           8   1.00792305989621      -9.559961207255485E-004
  2.466753881170228E-003 -2.770783070302780E-004  5.513304460492015E-002
 -5.627196398728962E-002 -2.888766050804050E-005 -3.470543254890132E-005
  3.116697798799130E-005
           9   1.00914868729031      -1.459930803204940E-003
  4.039827568261379E-003 -1.333777112422280E-003  5.632473637149070E-002
 -5.746593817187286E-002 -2.463729941122288E-005 -3.980498884794217E-005
  4.047556399283607E-005
          10   1.01039910916117      -2.117517189702259E-003
  6.273093227240440E-003 -2.575772584796261E-003  5.710466168078237E-002
 -5.856747346938469E-002 -2.126484112054116E-005 -4.483203758411537E-005
  5.089478543493781E-005
          11   1.01167479541608      -2.945447631175356E-003
  9.326619263535493E-003 -3.982767358683591E-003  5.721276248000928E-002
 -5.947901882126047E-002 -2.004026621100759E-005 -4.974248452821722E-005
  6.236518168612653E-005
          12   1.01297622353584      -3.956795851612726E-003
  1.336825237858895E-002 -5.534684850889492E-003  5.639019370655081E-002
 -6.011642496755312E-002 -2.141519821207833E-005 -5.448922620966820E-005
  7.463599066266934E-005
          13   1.01430387863970      -5.159733710839739E-003
  1.856526126313012E-002 -7.210331274062694E-003  5.439259294232150E-002
 -6.041452624110427E-002 -2.660850613916144E-005 -5.902240266019917E-005
  8.763207064555386E-005
          14   1.01565825354806      -6.557633646071415E-003
  2.507374202660748E-002 -8.987678884957544E-003  5.100208647001175E-002
 -6.033039901728598E-002 -3.591333790099922E-005 -6.328968705752698E-005
  1.009139233457632E-004
          15   1.01703984884284      -8.148876474294100E-003
  3.302602954929831E-002 -1.084215769810836E-002  4.604357859567165E-002
 -5.984667333736174E-002 -5.041390959857863E-005 -6.723665641773791E-005
  1.142500691894397E-004
          16   1.01844917292545      -9.928154138322438E-003
  4.251711654870502E-002 -1.274770227499708E-002  3.939939545836536E-002
 -5.897259796598048E-002 -7.009734551724641E-005 -7.080730840349110E-005
  1.271529738496489E-004
          17   1.01988674207195      -1.188782540706286E-002
  5.359040997338872E-002 -1.467476117381447E-002  3.102487281398119E-002
 -5.774381280815355E-002 -9.573482071678031E-005 -7.394465535423209E-005
  1.392039222680189E-004
          18   1.02135308048552      -1.402030830064215E-002
  6.622485639415131E-002 -1.659223396915737E-002  2.096105496225334E-002
 -5.621990300291804E-002 -1.268371505357480E-004 -7.659156181333716E-005
  1.500373713379966E-004
          19   1.02284872034580      -1.632058540309461E-002
  8.032372233658554E-002 -1.846547679495729E-002  9.344054787579138E-003
 -5.448021972286968E-002 -1.636623410688255E-004 -7.869167078063902E-005
  1.591411913936331E-004
          20   1.02437420185500      -1.878866795545447E-002
  9.570769278517846E-002 -2.025899548204264E-002 -3.590477355729380E-003
 -5.261779744289741E-002 -2.051547840647002E-004 -8.019062165576414E-005
  1.664091433340930E-004
          21   1.02593007328071      -2.143184832734978E-002
  0.112112213682845      -2.193483651438767E-002 -1.751014975534374E-002
 -5.073201732003224E-002 -2.509447658335798E-004 -8.103734268340938E-005
  1.713796572141151E-004
          22   1.02751689099490      -2.426554907437968E-002
  0.129191530634676      -2.345568540103509E-002 -3.199499870197962E-002
 -4.892039442969198E-002 -2.994717654395785E-004 -8.118559963237425E-005
  1.742456625172930E-004
          23   1.02913521950923      -2.731345624145071E-002
  0.146528538923520      -2.478394845890644E-002 -4.655555735483900E-002
 -4.727046938419185E-002 -3.497932749702883E-004 -8.059555134507651E-005
  1.747186578167452E-004
          24   1.03078563150626      -3.060526747978747E-002
  0.163651729170399      -2.588483111332170E-002 -6.065663057823596E-002
 -4.585247476605972E-002 -4.000675716669839E-004 -7.923543400591843E-005
  1.732222273207994E-004
          25   1.03246870786630      -3.417351451482965E-002
  0.180057227923001      -2.672617082017125E-002 -7.374802062616587E-002
 -4.471372955302319E-002 -4.490146345506782E-004 -7.708312679479724E-005
  1.696946474659127E-004
          26   1.03418503768983      -3.804806140299002E-002
  0.195235560299548      -2.728111973897561E-002 -8.529750203983277E-002
 -4.387524163228670E-002 -4.948363191524582E-004 -7.412765175993097E-005
  1.646715145504855E-004
          27   1.03593521831513      -4.225022291530686E-002
  0.208700212660878      -2.752847920080112E-002 -9.482565864082657E-002
 -4.333094133464876E-002 -5.362595622396189E-004 -7.037039395323130E-005
  1.582806131014635E-004
          28   1.03771985533084      -4.678584895266602E-002
  0.220016344007793      -2.745467318739470E-002 -0.101937653413639     
 -4.304946362599074E-002 -5.718527925203413E-004 -6.582604649416415E-005
  1.510259890877491E-004
          29   1.03953956258337      -5.163937269761400E-002
  0.228826583586652      -2.705408134425303E-002 -0.106350637105622     
 -4.297820340756978E-002 -6.006889028991145E-004 -6.052312364951927E-005
  1.430770050454405E-004
          30   1.04139496217862      -5.676878943882321E-002
  0.234872060677251      -2.633005334589325E-002 -0.107912998081383     
 -4.304902683973266E-002 -6.219306764533119E-004 -5.450403705805837E-005
  1.347582579073136E-004
          31   1.04328668447804      -6.210315733462199E-002
  0.238006493526619      -2.529473671147492E-002 -0.106614515553647     
 -4.318492259619286E-002 -6.352241805407569E-004 -4.782465261960779E-005
  1.261124975212589E-004
          32   1.04521536808852      -6.754258847997677E-002
  0.238202410838811      -2.396908669485549E-002 -0.102585719905494     
 -4.330680065427778E-002 -6.404093217546072E-004 -4.055335283753916E-005
  1.172524296152374E-004
          33   1.04718165984596      -7.296157603191374E-002
  0.235548969095712      -2.238201569766768E-002 -9.608696869467293E-002
 -4.333975150856018E-002 -6.377605891670885E-004 -3.276960922366998E-005
  1.081269645070638E-004
          34   1.04918621479212      -7.821506446914674E-002
  0.230241928307921      -2.056965067723172E-002 -8.748788115338481E-002
 -4.321823365737329E-002 -6.277286586902876E-004 -2.456213770287916E-005
  9.880755439081019E-005
          35   1.05122969614456      -8.314732209210644E-002
  0.222566953634926      -1.857397779583016E-002 -7.723930881016242E-002
 -4.288988553227399E-002 -6.110977965440716E-004 -1.602671939509095E-005
  8.933488861432800E-005
          36   1.05331277525931      -8.760235850981760E-002
  0.212878032413355      -1.644164564793760E-002 -6.584028546184574E-002
 -4.231786419149540E-002 -5.887458576079151E-004 -7.263783844951160E-006
  7.986896080583970E-005
          37   1.05543613158589      -9.143521710407460E-002
  0.201573193647877      -1.422226591493989E-002 -5.380322557518409E-002
 -4.148180178459505E-002 -5.617341472061046E-004  1.624131334417717E-006
  7.057325321161735E-005
          38   1.05760045261452      -9.452248332156965E-002
  0.189069664916940      -1.196681281222839E-002 -4.162055833602687E-002
 -4.037759226447798E-002 -5.311245019984185E-004  1.053496819975949E-005
  6.162864883819345E-005
          39   1.05980643381499      -9.677092361209594E-002
  0.175780608529221      -9.725606972068928E-003 -2.973600764619700E-002
 -3.901625483482966E-002 -4.980001906111832E-004  1.936967779324686E-005
  5.318495121126564E-005
          40   1.06205477856702      -9.812303201878124E-002
  0.162094998907753      -7.546371259889199E-003 -1.852289345877071E-002
 -3.742206187185041E-002 -4.633738750046664E-004  2.803463898670353E-005
  4.530106244333889E-005
          41   1.06434619808173      -9.855895656278535E-002
  0.148361909617244      -5.472184931878283E-003 -8.271006922431851E-003
 -3.563004341917284E-002 -4.281571216098220E-004  3.644386539584238E-005
  3.800452476166176E-005
          42   1.06668141131370      -9.809499762431248E-002
  0.134879713234486      -3.539716670395614E-003  8.178598717839096E-004
 -3.368297588688469E-002 -3.931495212943875E-004  4.452094619602012E-005
  3.125434957884052E-005
          43   1.06906114486362      -9.677929748505168E-002
  0.121890313283465      -1.777826759649398E-003  8.626705638724159E-003
 -3.162805629380419E-002 -3.589968667158509E-004  5.220062393499272E-005
  2.504214090286649E-005
          44   1.07148613287078      -9.468589305077386E-002
  0.109577900890397      -2.067527336774103E-004  1.511446164422895E-002
 -2.951355966970986E-002 -3.262228062418357E-004  5.942996481286128E-005
  1.936423903560718E-005
          45   1.07395711689529      -9.190799506228779E-002
  9.807148660068721E-002  1.161998968680016E-003  2.030359400200198E-002
 -2.738578493631450E-002 -2.952003452221514E-004  6.616905882041862E-005
  1.426828636517637E-005
          46   1.07647484578958      -8.855136082761006E-002
  8.745016959883467E-002  2.325056489864817E-003  2.426628086544761E-002
 -2.528651611429434E-002 -2.661961083175230E-004  7.239123411780304E-005
  9.825138042979698E-006
          47   1.07904007555878      -8.472822731633448E-002
  7.775014493874903E-002  3.285950833486697E-003  2.711072945979637E-002
 -2.325117379001165E-002 -2.393532664304447E-004  7.808275691268546E-005
  6.153616168208694E-006
          48   1.08165356920959      -8.055221705013449E-002
  6.897249732285350E-002  4.053598042426905E-003  2.896873521583939E-002
 -2.130781122048774E-002 -2.147374003239098E-004  8.324202305676556E-005
  3.306933230420742E-006
          49   1.08431609658739      -7.613401670426018E-002
  6.109105464830684E-002  4.640803775335035E-003  2.998478011445771E-002
 -1.947700279682931E-002 -1.923242825691201E-004  8.787825854659689E-005
  1.173012987574378E-006
          50   1.08702843420093      -7.157739690809935E-002
  5.405974939779064E-002  5.063161609268032E-003  3.030645984010939E-002
 -1.777249844736321E-002 -1.720437107209577E-004  9.200981254867471E-005
 -5.584064667847675E-007
          51   1.08979136503456      -6.697525271001052E-002
  4.781915332466864E-002  5.338318278365848E-003  3.007605293291879E-002
 -1.620240186759807E-002 -1.537698605155772E-004  9.566217655617576E-005
 -2.237725614706164E-006
          52   1.09260567834721      -6.240628416279569E-002
  4.230200318000157E-002  5.485519881918568E-003  2.942362521750733E-002
 -1.477048261475034E-002 -1.373591614568615E-004  9.886591925935967E-005
 -4.111740316064421E-006
          53   1.09547216945813      -5.793315056560743E-002
  3.743767177408894E-002  5.525094606410099E-003  2.846223374287604E-002
 -1.347710622238111E-002 -1.226430605990776E-004  1.016547243252279E-004
 -6.245000887312378E-006
          54   1.09839163951863      -5.360236894541826E-002
  3.315560642392238E-002  5.477776858692494E-003  2.728534347614019E-002
 -1.231954908911327E-002 -1.094567342678047E-004  1.040636872626892E-004
 -8.584322781586207E-006
          55   1.10136489526968      -4.944562022369740E-002
  2.938782044819526E-002  5.363816506007346E-003  2.596648444260643E-002
 -1.129204254661119E-002 -9.763278172789978E-005  1.061279585813368E-004
 -1.104619664611334E-005
          56   1.10439274878480      -4.548251186747140E-002
  2.607058431556108E-002  5.202087133416963E-003  2.456145324556427E-002
 -1.038604436926142E-002 -8.701888549512415E-005  1.078817522916047E-004
 -1.356867539403390E-005
          57   1.10747601719801      -4.172463139218817E-002
  2.314549938668041E-002  5.009310705520816E-003  2.311281891946531E-002
 -9.590905024277188E-003 -7.747065045594177E-005  1.093576703015478E-004
 -1.602038495321324E-005
          58   1.11061552241622      -3.817949873136205E-002
  2.056010081897153E-002  4.799520797092026E-003  2.165481309484400E-002
 -8.894865821625535E-003 -6.886076498250151E-005  1.105862487316492E-004
 -1.820435833087806E-005
          59   1.11381209081590      -3.485260396864820E-002
  1.826807122244488E-002  4.583780595935009E-003  2.021641644563117E-002
 -8.286199514111818E-003 -6.107376203081108E-005  1.115956344336505E-004
 -2.001334634612229E-005
          60   1.11706655292352      -3.174710624973316E-002
  1.622910607354613E-002  4.370306763021001E-003  1.882182071462184E-002
 -7.754152484083851E-003 -5.401154263648860E-005  1.124113614734204E-004
 -2.162536379110076E-005
          61   1.12037974307931      -2.886247656606478E-002
  1.440848114770475E-002  4.165101784874684E-003  1.748944930288554E-002
 -7.289319039983003E-003 -4.758955856918899E-005  1.130562773849035E-004
 -2.329665176709943E-005
          62   1.12375249908414      -2.619391632266831E-002
  1.277645940829443E-002  3.972909519234795E-003  1.623128652132069E-002
 -6.883602540831407E-003 -4.173758041717257E-005  1.135506910389661E-004
 -2.505030402800968E-005
          63   1.12718566182903      -2.373281209824867E-002
  1.130774983316737E-002  3.797971828784418E-003  1.505300514209031E-002
 -6.530179881783308E-003 -3.639566641835726E-005  1.139127286029322E-004
 -2.674811380530060E-005
          64   1.13068007490686      -2.146734026488374E-002
  9.981109801787576E-003  3.644250423102716E-003  1.395457505807852E-002
 -6.223457767265189E-003 -3.151301534672017E-005  1.141587451019520E-004
 -2.821701942488174E-005
          65   1.13423658420616      -1.938320175527674E-002
  8.778957602139413E-003  3.515251848722550E-003  1.293127200667531E-002
 -5.958915071923098E-003 -2.704515616696019E-005  1.143035880804520E-004
 -2.937693774906949E-005
          66   1.13785603748633      -1.746495090152616E-002
  7.686834463201462E-003  3.413814114904899E-003  1.197513304681856E-002
 -5.732520445810646E-003 -2.295208616901210E-005  1.143606504384331E-004
 -3.028115814246137E-005
          67   1.14153928393427      -1.569686026933213E-002
  6.692726970131116E-003  3.342069875611975E-003  1.107555233040096E-002
 -5.539669039403459E-003 -1.919727560781268E-005  1.143418907534749E-004
 -3.103551744587540E-005
          68   1.14528717370181      -1.406201539568441E-002
  5.786390692986102E-003  3.301527565855380E-003  1.021866736410576E-002
 -5.374803773130628E-003 -1.574818733650587E-005  1.142580684045311E-004
 -3.172366479976371E-005
          69   1.14910055742387      -1.254272766635809E-002
  4.958847134157821E-003  3.292969850061671E-003  9.389875113962292E-003
 -5.232741551483940E-003 -1.257823278198328E-005  1.141191914285286E-004
 -3.223616101369716E-005
          70   1.15298028571697      -1.112531867173196E-002
  4.202157471666025E-003  3.315825854616534E-003  8.581012549577471E-003
 -5.110248455414248E-003 -9.666065984516108E-006  1.139347745042138E-004
 -3.230254276648454E-005
          71   1.15692720865775      -9.803453808321996E-003
  3.509465711410612E-003  3.367254542346036E-003  7.794495472903754E-003
 -5.006417230441581E-003 -6.992681298595722E-006  1.137133142368706E-004
 -3.193467916490060E-005
          72   1.16094217524140      -8.573006183520096E-003
  2.875042959624470E-003  3.442094689478328E-003  7.036679142929064E-003
 -4.921751472053518E-003 -4.538909306324959E-006  1.134609090051170E-004
 -3.201886384295998E-005
          73   1.16502603281968      -7.426346278479347E-003
  2.293835201042728E-003  3.534424591693795E-003  6.309665935290756E-003
 -4.854836243192963E-003 -2.285324587069939E-006  1.131803009769665E-004
 -3.236181725513380E-005
          74   1.16917962651833      -6.356816968986337E-003
  1.760809634096830E-003  3.639306032796383E-003  5.613122117009458E-003
 -4.801141008714811E-003 -2.113859329076665E-007  1.128717518024056E-004
 -3.205982792897773E-005
          75   1.17340379863373      -5.363176372659637E-003
  1.271220976917278E-003  3.753065092370111E-003  4.949705882927910E-003
 -4.756196897437508E-003  1.704545877377757E-006  1.125349605589250E-004
 -3.114181144554221E-005
          76   1.17769938800867      -4.445935734159093E-003
  8.217744373616949E-004  3.872576003811657E-003  4.323560180511056E-003
 -4.717196187675150E-003  3.481185257314646E-006  1.121702167899523E-004
 -2.956989810256781E-005
          77   1.18206722938699      -3.601385142400346E-003
  4.109227704457108E-004  3.994730891208729E-003  3.733904926653956E-003
 -4.682737453325117E-003  5.135816384987374E-006  1.117786797090042E-004
 -2.764951132307604E-005
          78   1.18650815274721      -2.820711972539153E-003
  3.709224745854103E-005  4.116447227069058E-003  3.175666840497018E-003
 -4.652793868655457E-003  6.686326838920064E-006  1.113625856333823E-004
 -2.625061369769110E-005
          79   1.19102298261489      -2.095400095770854E-003
 -3.035479651283817E-004  4.234817770147804E-003  2.647624149062219E-003
 -4.628266609368811E-003  8.141758648798360E-006  1.109250144244456E-004
 -2.570597798477961E-005
          80   1.19561253735382      -1.420886428189614E-003
 -6.170068194541385E-004  4.347365842291419E-003  2.155120590340262E-003
 -4.610267726355430E-003  9.495429956182487E-006  1.104686133406134E-004
 -2.571049807070631E-005
          81   1.20027762843604      -7.935830015936309E-004
 -9.092407132507166E-004  4.453002992133660E-003  1.702135435344485E-003
 -4.598752728182070E-003  1.073428518332549E-005  1.099940443003156E-004
 -2.570968606463043E-005
          82   1.20501905969067      -2.091225381806137E-004
 -1.184646226280511E-003  4.552748374383827E-003  1.285704063450481E-003
 -4.590884419775424E-003  1.185301092825442E-005  1.094991237120084E-004
 -2.484861176197664E-005
          83   1.20983762653179       3.347370977938898E-004
 -1.446320632694261E-003  4.648696081977340E-003  9.008315223064414E-004
 -4.583042288251129E-003  1.285811399237024E-005  1.089786460148276E-004
 -2.326145886052101E-005
          84   1.21473411516536       8.383542006078347E-004
 -1.696168987493843E-003  4.741920554798477E-003  5.464070429783915E-004
 -4.574710284764294E-003  1.376587638253822E-005  1.084244870517732E-004
 -2.200711043912166E-005
          85   1.21970930177545       1.302359304995231E-003
 -1.933812769057914E-003  4.831116283308979E-003  2.246064334937682E-004
 -4.568510029976527E-003  1.459334761607270E-005  1.078256012542744E-004
 -2.182182836611503E-005
          86   1.22476395169004       1.726703435479238E-003
 -2.155928384803682E-003  4.913783302788947E-003 -6.265120045963164E-005
 -4.566209778883449E-003  1.535701885127460E-005  1.071681984213570E-004
 -2.177740860594550E-005
          87   1.22989881852658       2.109101658777003E-003
 -2.357314373690130E-003  4.988393651599994E-003 -3.169134766456938E-004
 -4.566804348240160E-003  1.606794139294570E-005  1.064377905276963E-004
 -2.103115627834513E-005
          88   1.23511464331776       2.445877254270993E-003
 -2.532555291127701E-003  5.053899905381437E-003 -5.428083670778460E-004
 -4.566890815186115E-003  1.672942549547444E-005  1.056238745094189E-004
 -2.012401373433856E-005
          89   1.24041215361779       2.732280812147159E-003
 -2.676942290440280E-003  5.109133064225909E-003 -7.421808602096408E-004
 -4.563685566893121E-003  1.733829404456727E-005  1.047246622515006E-004
 -1.933188487390731E-005
          90   1.24579206258969       2.967867913374268E-003
 -2.787838246230827E-003  5.154120798105834E-003 -9.156779062726625E-004
 -4.559059458310569E-003  1.788658636874230E-005  1.037485230868350E-004
 -1.895178987838055E-005
          91   1.25125506807407       3.165780096708441E-003
 -2.867794750953070E-003  5.189542828682651E-003 -1.072168372965705E-003
 -4.555252118363919E-003  1.836776831149561E-005  1.027111984859171E-004
 -1.881335009418967E-005
          92   1.25680185164003       3.352113567043494E-003
 -2.925984199842853E-003  5.214337555053915E-003 -1.229423317212971E-003
 -4.549800942794364E-003  1.878007826853836E-005  1.016301048500784E-004
 -1.834715463416189E-005
          93   1.26243307761871       3.551575474927331E-003
 -2.973918202741695E-003  5.225539781403434E-003 -1.401094590923563E-003
 -4.539780543283216E-003  1.912465870002415E-005  1.005192018764221E-004
 -1.803422004126372E-005
          94   1.26814939212026       3.769391542662738E-003
 -3.019095582323240E-003  5.220930014447678E-003 -1.581778528431106E-003
 -4.527220096290059E-003  1.939502310361460E-005  9.938783711748930E-005
 -1.898978971288335E-005
          95   1.27395142203495       3.990634528633903E-003
 -3.063740310535371E-003  5.202231626988625E-003 -1.751393681849101E-003
 -4.516256717606463E-003  1.957611749346947E-005  9.824231091730071E-005
 -2.070612595763614E-005
          96   1.27983977401934       4.192811939351713E-003
 -3.107987550835752E-003  5.177711396640398E-003 -1.892673591301724E-003
 -4.508496751082849E-003  1.966164278386993E-005  9.708621933265590E-005
 -2.188669511168684E-005
          97   1.28581503346819       4.356538130234464E-003
 -3.150028803802894E-003  5.158733677925274E-003 -2.000912477586114E-003
 -4.503231252498428E-003  1.965897291043688E-005  9.591839546684022E-005
 -2.332335735042129E-005
          98   1.29187776347340       4.487174329773548E-003
 -3.184397526519566E-003  5.147420139007199E-003 -2.091502743769114E-003
 -4.499151479390610E-003  1.958351716808203E-005  9.473039103750566E-005
 -2.614337269295553E-005
          99   1.29802850377068       4.616897561603359E-003
 -3.208699412564711E-003  5.131825813350338E-003 -2.185666809380136E-003
 -4.494120429362683E-003  1.944595634856455E-005  9.350753838708106E-005
 -2.680978161818765E-005
         100   1.30426776967532       4.767637489779313E-003
 -3.233274695776264E-003  5.100299395679016E-003 -2.283610662948248E-003
 -4.488483517661820E-003  1.924038100288736E-005  9.223654293585848E-005
 -2.595506698925737E-005
         101   1.31059605100808       4.940665095444044E-003
 -3.273661889885596E-003  5.049939402482250E-003 -2.368657175020017E-003
 -4.484911129747499E-003  1.895740720908599E-005  9.091452489727939E-005
 -2.675376462045282E-005
         102   1.31701381101262       5.120945719417640E-003
 -3.330656271798240E-003  4.972740779814143E-003 -2.415336410796061E-003
 -4.482847444827724E-003  1.859706498020583E-005  8.954860482665583E-005
 -2.700795838338018E-005
         103   1.32352148526559       5.285238370174488E-003
 -3.388306553591001E-003  4.852269000022284E-003 -2.401737093260724E-003
 -4.479304362061627E-003  1.815614490264744E-005  8.814578537172379E-005
 -2.553870844220865E-005
         104   1.33011948058098       5.422139761427951E-003
 -3.433343006239893E-003  4.681302777774505E-003 -2.324879435353044E-003
 -4.473057053790241E-003  1.763965705383202E-005  8.670625493117923E-005
 -2.349104419571027E-005
         105   1.33680817391012       5.526612059398371E-003
 -3.466935917581569E-003  4.471225065260098E-003 -2.190186213585594E-003
 -4.466184022035385E-003  1.707958588316865E-005  8.522635700928746E-005
 -2.316308565162290E-005
         106   1.34358791123894       5.587938892007387E-003
 -3.497845647296766E-003  4.242777348209599E-003 -1.996284876461458E-003
 -4.459544594673766E-003  1.652089580202819E-005  8.370514518392380E-005
 -2.273283722905334E-005
         107   1.35045900648403       5.608697261762103E-003
 -3.531445525161667E-003  4.008911898772362E-003 -1.753584054204233E-003
 -4.452834939610406E-003  1.598885132366632E-005  8.214808880570995E-005
 -2.211841831246558E-005
         108   1.35742174038927       5.625574354282258E-003
 -3.564423332608730E-003  3.772116767931044E-003 -1.507464519850004E-003
 -4.445122467493210E-003  1.547962138630033E-005  8.056563978291534E-005
 -2.327393656942717E-005
         109   1.36447635942490       5.682209858994453E-003
 -3.585881702663546E-003  3.537800906928225E-003 -1.318092973766142E-003
 -4.433137382824933E-003  1.498308714578272E-005  7.897062756521966E-005
 -2.314757862094021E-005
         110   1.37162307469064       5.789356650558115E-003
 -3.583474753980601E-003  3.317065467789537E-003 -1.220341522874939E-003
 -4.416504664413389E-003  1.449504408662094E-005  7.738070653226167E-005
 -2.202307230239395E-005
         111   1.37886206082501       5.934879858500009E-003
 -3.549368821200861E-003  3.114392169186575E-003 -1.213074078219645E-003
 -4.399656559507439E-003  1.400098838859935E-005  7.581955520794340E-005
 -2.300688764481783E-005
         112   1.38619345492273       6.107632440521801E-003
 -3.480151890769377E-003  2.922430303115148E-003 -1.276485349546273E-003
 -4.384462712908407E-003  1.349378755127778E-005  7.430600399933873E-005
 -2.323741803649204E-005
         113   1.39361735546222       6.281397026481866E-003
 -3.373287472156659E-003  2.734824375453924E-003 -1.383129551126723E-003
 -4.367819076433131E-003  1.297105326500344E-005  7.283986386942207E-005
 -2.220378064629835E-005
         114   1.40113382124542       6.422507906043923E-003
 -3.228153177680717E-003  2.564158229301200E-003 -1.519177218829347E-003
 -4.346417772583750E-003  1.243634157901816E-005  7.140419414159230E-005
 -2.324149802807969E-005
         115   1.40874287035193       6.530831124404069E-003
 -3.052167339613383E-003  2.435743853112182E-003 -1.699081855318925E-003
 -4.319479366426319E-003  1.189982475618693E-005  6.998279494133466E-005
 -2.227096414485482E-005
         116   1.41644447910994       6.636612822333069E-003
 -2.864141163269175E-003  2.357848552095088E-003 -1.939414426120079E-003
 -4.291750969478612E-003  1.135655926752752E-005  6.857050495627515E-005
 -2.091812021590695E-005
         117   1.42423858108597       6.743733392616070E-003
 -2.684502916754991E-003  2.314083735398644E-003 -2.206540955580022E-003
 -4.265798082807103E-003  1.079573602524895E-005  6.716712965106758E-005
 -2.106196145108527E-005
         118   1.43212506609588       6.812255747110508E-003
 -2.515665174743427E-003  2.284701308369200E-003 -2.437043752116072E-003
 -4.239461095182902E-003  1.021653424572803E-005  6.576951009231932E-005
 -1.922692222464441E-005
         119   1.44010377923958       6.799257615738186E-003
 -2.341553734772814E-003  2.251633340601966E-003 -2.586345468487629E-003
 -4.210839641296068E-003  9.614932627242706E-006  6.437031813396124E-005
 -1.386263745515616E-005
         120   1.44817451996164       6.701842829725677E-003
 -2.154311646450924E-003  2.191015992525182E-003 -2.635138288899374E-003
 -4.183170354068670E-003  9.013828042775965E-006  6.295425182322942E-005
 -7.793387302102009E-006
         121   1.45633704114049       6.579460504190506E-003
 -1.969684787784312E-003  2.080018910782263E-003 -2.605649917877725E-003
 -4.159162544925955E-003  8.418586912965188E-006  6.148875740698279E-005
 -5.110491295274140E-006
         122   1.46459104820845       6.509546512578222E-003
 -1.812927393530142E-003  1.908173928026618E-003 -2.539000145225075E-003
 -4.134491835292747E-003  7.814522468346134E-006  5.992309854926589E-005
 -9.613124255135672E-007
         123   1.47293619830522       6.517359976411213E-003
 -1.701438811391131E-003  1.688023066078737E-003 -2.454360530736867E-003
 -4.109923666136976E-003  7.195838060976686E-006  5.820481866631796E-005
  5.060690952270059E-006
         124   1.48137209946730       6.576141665542414E-003
 -1.640318908264598E-003  1.450786722865994E-003 -2.348925991668819E-003
 -4.087906637343822E-003  6.573389252884421E-006  5.630331434606020E-005
  1.265355473011388E-005
         125   1.48989830985582       6.655187604665719E-003
 -1.622345059128622E-003  1.225973715583338E-003 -2.232255004878720E-003
 -4.067182405476499E-003  5.972966108657631E-006  5.422178665325308E-005
  1.957360352712796E-005
         126   1.49851433702528       6.750524929368977E-003
 -1.624988511182998E-003  1.031592609649935E-003 -2.144496543539457E-003
 -4.045183498790013E-003  5.392848309157442E-006  5.198556871303592E-005
  2.482740252863811E-005
         127   1.50721963723579       6.840724176984727E-003
 -1.614847603095958E-003  8.750346528712030E-004 -2.104981888040655E-003
 -4.020110527745473E-003  4.824965801380554E-006  4.961715179274684E-005
  3.026092856797170E-005
         128   1.51601361481118       6.876723883973973E-003
 -1.569291792155739E-003  7.547421181682001E-004 -2.085348931703321E-003
 -3.991543425406710E-003  4.275141742709166E-006  4.713054445682624E-005
  3.668753907593874E-005
         129   1.52489562154555       6.852089334086457E-003
 -1.492094845594386E-003  6.638933942131516E-004 -2.071247719126390E-003