 VARIABLES =J,Y,UAVG,VAVG,UUAVG,VVAVG,WWAVG,UVAVG
 ZONE T="X=  0.000000000000000E+000 "
           1   1.00000000000000       0.000000000000000E+000
  0.000000000000000E+000  0.000000000000000E+000  0.000000000000000E+000
  0.000000000000000E+000  0.000000000000000E+000
           2   1.00106460177068       5.346381108566021E-003
  8.806612274831648E-006  8.646294389251074E-005  6.063234182264950E-009
  7.209917533771096E-005 -7.176499837704348E-008
           3   1.00215091489022       1.159736567072507E-002
  3.849846466763154E-005  3.487135119480517E-004  8.308453888077514E-008
  2.773696289826250E-004 -5.560614664960308E-007
           4   1.00325935821868       1.880152269467092E-002
  9.423889698946151E-005  7.935777178298879E-004  3.980971917601814E-007
  6.003333524086299E-004 -1.928094053154260E-006
           5   1.00439035768712       2.700758926856099E-002
  1.818182903064489E-004  1.430943945625598E-003  1.202313613744137E-006
  1.026690046126524E-003 -4.736319449058513E-006
           6   1.00554434637365       3.626367950317022E-002
  3.073818053232103E-004  2.273220459429943E-003  2.808211624095643E-006
  1.543293427929104E-003 -9.563007376774149E-006
           7   1.00672176457824       4.661632511819824E-002
  4.777152525663779E-004  3.334629468697556E-003  5.568320236897682E-006
  2.138129969578085E-003 -1.699749512945287E-005
           8   1.00792305989621       5.810929318169721E-002
  6.999467964436169E-004  4.630276318285328E-003  9.859999168308704E-006
  2.800340558759707E-003 -2.759317478502693E-005
           9   1.00914868729031       7.078240410235982E-002
  9.817931818720497E-004  6.175043399497455E-003  1.607005734551798E-005
  3.520242490892157E-003 -4.183920344728035E-005
          10   1.01039910916117       8.467020957641172E-002
  1.331249809611029E-003  7.982296941111132E-003  2.458839606897700E-005
  4.289380824265436E-003 -6.012025064734011E-005
          11   1.01167479541608       9.980065875826882E-002
  1.756777622575263E-003  1.006248670661615E-002  3.579858604702661E-005
  5.100554828903574E-003 -8.269154067185196E-005
          12   1.01297622353584       0.116193716380023     
  2.266974001760582E-003  1.242168106043925E-002  5.008041931624083E-005
  5.947849437907969E-003 -1.096538972497052E-004
          13   1.01430387863970       0.133860015025886     
  2.870691096546463E-003  1.506013458882609E-002  6.780590947548259E-005
  6.826631881758902E-003 -1.409432644625504E-004
          14   1.01565825354806       0.152799548866916     
  3.576683338679782E-003  1.797097057972595E-002  8.934938870618463E-005
  7.733533411820211E-003 -1.763332501362183E-004
          15   1.01703984884284       0.173000477551030     
  4.393653099559343E-003  2.113907972440970E-002  1.150876421270346E-004
  8.666393698146421E-003 -2.154469910071757E-004
          16   1.01844917292545       0.194438064896322     
  5.329879433306542E-003  2.454033128704049E-002  1.454148146720060E-004
  9.624180780515723E-003 -2.577909625297278E-004
          17   1.01988674207195       0.217073819831490     
  6.393193413992903E-003  2.814118293762366E-002  1.807448426124155E-004
  1.060687807175829E-002 -3.027873406221771E-004
          18   1.02135308048552       0.240854869099147     
  7.590603868539801E-003  3.189876662340495E-002  2.215275739245424E-004
  1.161534856889638E-002 -3.498302113786257E-004
          19   1.02284872034580       0.265713624825174     
  8.928214932295534E-003  3.576149561972278E-002  2.682514693749807E-004
  1.265117630904376E-002 -3.983260127626781E-004
          20   1.02437420185500       0.291567770851299     
  1.041087397424561E-002  3.967021638273976E-002  3.214573604664550E-004
  1.371649417866296E-002 -4.477527070922112E-004
          21   1.02593007328071       0.318320613739262     
  1.204205692675682E-002  4.355988094375858E-002  3.817395210816294E-004
  1.481380144295603E-002 -4.976898855858654E-004
          22   1.02751689099490       0.345861805226288     
  1.382356976013179E-002  4.736168316048175E-002  4.497543106293327E-004
  1.594577846679089E-002 -5.478583742195807E-004
          23   1.02913521950923       0.374068451306052     
  1.575543867201387E-002  5.100555108632321E-002  5.262180710679318E-004
  1.711510178168061E-002 -5.981234217182583E-004
          24   1.03078563150626       0.402806589537564     
  1.783569799822303E-002  5.442285999347918E-002  6.119091622963907E-004
  1.832426476130374E-002 -6.484988894337913E-004
          25   1.03246870786630       0.431933013640985     
  2.006032793238157E-002  5.754919589848156E-002  7.076617141334614E-004
  1.957540615109706E-002 -6.991167447515361E-004
          26   1.03418503768983       0.461297401568512     
  2.242315741101620E-002  6.032699622373774E-002  8.143609352308981E-004
  2.087015061061947E-002 -7.501944417396093E-004
          27   1.03593521831513       0.490744695021212     
  2.491588862157066E-002  6.270789127819154E-002  9.329326042990252E-004
  2.220946398287383E-002 -8.019782098406206E-004
          28   1.03771985533084       0.520117667271157     
  2.752813329807505E-002  6.465459962791315E-002  1.064332769412639E-003
  2.359352776160598E-002 -8.546883979164872E-004
          29   1.03953956258337       0.549259606407478     
  3.024754993702086E-002  6.614225864265033E-002  1.209533839291810E-003
  2.502163651735650E-002 -9.084567125393142E-004
          30   1.04139496217862       0.578017038727816     
  3.306001653958875E-002  6.715912333139679E-002  1.369510540912463E-003
  2.649212272673251E-002 -9.632747413294250E-004
          31   1.04328668447804       0.606242408225410     
  3.594988434445977E-002  6.770660952320690E-002  1.545224085035943E-003
  2.800231261794559E-002 -1.018950325701047E-003
          32   1.04521536808852       0.633796631389975     
  3.890027016163566E-002  6.779871011100314E-002  1.737606178928559E-003
  2.954851615672026E-002 -1.075084069206013E-003
          33   1.04718165984596       0.660551442021178     
  4.189340321310511E-002  6.746084900506416E-002  1.947542651135211E-003
  3.112605330923360E-002 -1.131064585347036E-003
          34   1.04918621479212       0.686391449987195     
  4.491099758538830E-002  6.672827189266828E-002  2.175856719539544E-003
  3.272931709812706E-002 -1.186087324566945E-003
          35   1.05122969614456       0.711215841691327     
  4.793464308023940E-002  6.564408953184309E-002  2.423293137325941E-003
  3.435187210565462E-002 -1.239195781966504E-003
          36   1.05331277525931       0.734939666695626     
  5.094619934317451E-002  6.425710143019103E-002  2.690501635746142E-003
  3.598658375128983E-002 -1.289342760197286E-003
          37   1.05543613158589       0.757494668961485     
  5.392816735480559E-002  6.261952797901649E-002  2.978022617763118E-003
  3.762577111000597E-002 -1.335470297514255E-003
          38   1.05760045261452       0.778829644496915     
  5.686403956208894E-002  6.078477657754355E-002  3.286272031214524E-003
  3.926137294720516E-002 -1.376599124122427E-003
          39   1.05980643381499       0.798910328532242     
  5.973859187190046E-002  5.880535905729600E-002  3.615529975079541E-003
  4.088511670555801E-002 -1.411924513003177E-003
          40   1.06205477856702       0.817718839839561     
  6.253813451758590E-002  5.673106606368683E-002  3.965929096467920E-003
  4.248868105904299E-002 -1.440903940313848E-003
          41   1.06434619808173       0.835252730797197     
  6.525068488444236E-002  5.460748559152362E-002  4.337448396971547E-003
  4.406384681760344E-002 -1.463331684451619E-003
          42   1.06668141131370       0.851523709554470     
  6.786609001192836E-002  5.247492502183748E-002  4.729908467277307E-003
  4.560263332346062E-002 -1.479386214701221E-003
          43   1.06906114486362       0.866556112454653     
  7.037607147534372E-002  5.036776033352808E-002  5.142973586727337E-003
  4.709741947660550E-002 -1.489649029226547E-003
          44   1.07148613287078       0.880385208382132     
  7.277422449756377E-002  4.831419643861812E-002  5.576156656085254E-003
  4.854104722637656E-002 -1.495089459385826E-003
          45   1.07395711689529       0.893055413834049     
  7.505595467680935E-002  4.633638749731950E-002  6.028830890240644E-003
  4.992690525652373E-002 -1.497021881003938E-003
          46   1.07647484578958       0.904618488326206     
  7.721838364758067E-002  4.445083915604464E-002  6.500243783624807E-003
  5.124899059746925E-002 -1.497038712052701E-003
          47   1.07904007555878       0.915131769866781     
  7.926021231075946E-002  4.266899974124805E-002  6.989535727462343E-003
  5.250194802845399E-002 -1.496930505413829E-003
          48   1.08165356920959       0.924656499495230     
  8.118156861293126E-002  4.099794548556113E-002  7.495758973711393E-003
  5.368108771222917E-002 -1.498600942515776E-003
          49   1.08431609658739       0.933256275181086     
  8.298383092836771E-002  3.944107972179389E-002  8.017898810060412E-003
  5.478238158251184E-002 -1.503987714375807E-003
          50   1.08702843420093       0.940995666063600     
  8.466944842657328E-002  3.799879450844845E-002  8.554893664604660E-003
  5.580243940715111E-002 -1.514993505156839E-003
          51   1.08979136503456       0.947939007617349     
  8.624175225712120E-002  3.666907798666175E-002  9.105655488756002E-003
  5.673847121416463E-002 -1.533429014288157E-003
          52   1.09260567834721       0.954149384060067     
  8.770477392400691E-002  3.544808070670080E-002  9.669087510397401E-003
  5.758825076075302E-002 -1.560964145664478E-003
          53   1.09547216945813       0.959687790346094     
  8.906306716183751E-002  3.433066561625375E-002  1.024409952163998E-002
  5.835009608530794E-002 -1.599084570678769E-003
          54   1.09839163951863       0.964612459060221     
  9.032154460310114E-002  3.331094601575912E-002  1.082961809534241E-002
  5.902287079702195E-002 -1.649052134540502E-003
          55   1.10136489526968       0.968978340178404     
  9.148532675080284E-002  3.238277556694213E-002  1.142459178298460E-002
  5.960599389208075E-002 -1.711872773647316E-003
          56   1.10439274878480       0.972836727027167     
  9.255961081755643E-002  3.154013099423947E-002  1.202799087467358E-002
  6.009943990312825E-002 -1.788277889207046E-003
          57   1.10747601719801       0.976235026541823     
  9.354956070085188E-002  3.077734277213573E-002  1.263880393962400E-002
  6.050371725565936E-002 -1.878724257056957E-003
          58   1.11061552241622       0.979216679961023     
  9.446022480813518E-002  3.008916824338381E-002  1.325603324644902E-002
  6.081982539644394E-002 -1.983411747809277E-003
          59   1.11381209081590       0.981821243072494     
  9.529648135155479E-002  2.947074496341617E-002  1.387869154230196E-002
  6.104920561870521E-002 -2.102313587435387E-003
          60   1.11706655292352       0.984084612640366     
  9.606300736268182E-002  2.891748984775588E-002  1.450580113974590E-002
  6.119370244659744E-002 -2.235213119289661E-003
          61   1.12037974307931       0.986039340767719     
  9.676426287323231E-002  2.842500220619648E-002  1.513639439478560E-002
  6.125553183331195E-002 -2.381741986361735E-003
          62   1.12375249908414       0.987714961747485     
  9.740448235491987E-002  2.798899028253665E-002  1.576951374664881E-002
  6.123723592570335E-002 -2.541414549129456E-003
          63   1.12718566182903       0.989138303560324     
  9.798767119086384E-002  2.760521797727311E-002  1.640421108033506E-002
  6.114162887296438E-002 -2.713653458486120E-003
          64   1.13068007490686       0.990333810530346     
  9.851760864321536E-002  2.726948112834082E-002  1.703954807216075E-002
  6.097177846850714E-002 -2.897804933343143E-003
          65   1.13423658420616       0.991323879655619     
  9.899785934653932E-002  2.697763707121303E-002  1.767459778196925E-002
  6.073105878551290E-002 -3.093146876204406E-003
          66   1.13785603748633       0.992129143320212     
  9.943178942094150E-002  2.672570776896133E-002  1.830844615894776E-002
  6.042324711450848E-002 -3.298891006599081E-003
          67   1.14153928393427       0.992768626347889     
  9.982258270323036E-002  2.651003575598432E-002  1.894019146340297E-002
  6.005259056898376E-002 -3.514175654305632E-003
          68   1.14528717370181       0.993259791405276     
  0.100173249473633       2.632740353462415E-002  1.956894048730045E-002
  5.962377723223510E-002 -3.738051689656421E-003
          69   1.14910055742387       0.993618572027132     
  0.100486621506388       2.617502651453141E-002  2.019380227672555E-002
  5.914179840811171E-002 -3.969480694869215E-003
          70   1.15298028571697       0.993859480141532     
  0.100765333312120       2.605043497628723E-002  2.081388293364461E-002
  5.861174614321675E-002 -4.207372160516143E-003
          71   1.15692720865775       0.993995784907229     
  0.101011803403256       2.595134098954632E-002  2.142828549158071E-002
  5.803862224510953E-002 -4.450654939584991E-003
          72   1.16094217524140       0.994039708113376     
  0.101228231304498       2.587560122314447E-002  2.203611861916632E-002
  5.742721482950690E-002 -4.698327954046205E-003
          73   1.16502603281968       0.994002556052009     
  0.101416604563975       2.582132589660291E-002  2.263650851309375E-002
  5.678205454305216E-002 -4.949461614593823E-003
          74   1.16917962651833       0.993894724508485     
  0.101578688392845       2.578693282426670E-002  2.322859935038103E-002
  5.610742091972833E-002 -5.203205510513703E-003
          75   1.17340379863373       0.993725686190156     
  0.101716006280004       2.577099068852085E-002  2.381154621037287E-002
  5.540734568601346E-002 -5.458828578914887E-003
          76   1.17769938800867       0.993504170321805     
  0.101829857348739       2.577201385545691E-002  2.438451609497939E-002
  5.468560708570608E-002 -5.715738866721026E-003
          77   1.18206722938699       0.993238520170798     
  0.101921377775144       2.578831203308807E-002  2.494669065780943E-002
  5.394577759427070E-002 -5.973466197498042E-003
          78   1.18650815274721       0.992936875664610     
  0.101991580444830       2.581795337727477E-002  2.549724487904895E-002
  5.319138495580517E-002 -6.231652240120886E-003
          79   1.19102298261489       0.992606844380860     
  0.102041319322318       2.585899271560888E-002  2.603530156915371E-002
  5.242610972818561E-002 -6.490059206012547E-003
          80   1.19561253735382       0.992254855915477     
  0.102071229758944       2.590991547995769E-002  2.655991606063984E-002
  5.165380482228372E-002 -6.748531925824419E-003
          81   1.20027762843604       0.991885804350265     
  0.102081736420998       2.597000111943459E-002  2.707013122354934E-002
  5.087825985416611E-002 -7.006887668239148E-003
          82   1.20501905969067       0.991503216438922     
  0.102073128729385       2.603926327351069E-002  2.756506401964693E-002
  5.010282659337467E-002 -7.264835136281469E-003
          83   1.20983762653179       0.991109581838272     
  0.102045636157887       2.611786027620855E-002  2.804396303557227E-002
  4.933003070355169E-002 -7.522008664725577E-003
          84   1.21473411516536       0.990706577474447     
  0.101999482699095       2.620545142352193E-002  2.850623106413250E-002
  4.856130509041259E-002 -7.778023315507920E-003
          85   1.21970930177545       0.990295416878539     
  0.101934948559713       2.630110991204859E-002  2.895143327671360E-002
  4.779697366789679E-002 -8.032436692139558E-003
          86   1.22476395169004       0.989877505720755     
  0.101852440324625       2.640375131458406E-002  2.937929293015280E-002
  4.703660439123712E-002 -8.284681621999454E-003
          87   1.22989881852658       0.989455119981396     
  0.101752525039315       2.651251711920921E-002  2.978966859509755E-002
  4.627968247930678E-002 -8.534085796745736E-003
          88   1.23511464331776       0.989031776817512     
  0.101635899252499       2.662684191133158E-002  3.018250925174031E-002
  4.552621292825203E-002 -8.779980705596865E-003
          89   1.24041215361779       0.988612302927404     
  0.101503319856956       2.674620449905707E-002  3.055778226865225E-002
  4.477681497684659E-002 -9.021839396327461E-003
          90   1.24579206258969       0.988202662598366     
  0.101355530734214       2.686984269084880E-002  3.091539611168485E-002
  4.403237684184855E-002 -9.259374332748690E-003
          91   1.25125506807407       0.987809278117305     
  0.101193144570075       2.699698560681674E-002  3.125515504157812E-002
  4.329393356096925E-002 -9.492545846919359E-003
          92   1.25680185164003       0.987437708815730     
  0.101016460590968       2.712733609235995E-002  3.157675083226039E-002
  4.256298847439093E-002 -9.721494196121436E-003
          93   1.26243307761871       0.987091450851861     
  0.100825373330960       2.726104434791887E-002  3.187977469827822E-002
  4.184162646202642E-002 -9.946404474519291E-003
          94   1.26814939212026       0.986771850480273     
  0.100619520564043       2.739826640973075E-002  3.216372088322305E-002
  4.113228800324278E-002 -1.016736520531041E-002
          95   1.27395142203495       0.986478984448041     
  0.100398542308542       2.753902906712091E-002  3.242798181753248E-002
  4.043766228029212E-002 -1.038432805519507E-002
          96   1.27983977401934       0.986212465590072     
  0.100162197742095       2.768356762665192E-002  3.267187950692004E-002
  3.976054745276341E-002 -1.059717808045753E-002
          97   1.28581503346819       0.985971896649828     
  9.991033942566981E-002  2.783262287010047E-002  3.289477125218312E-002
  3.910345678284211E-002 -1.080581768099353E-002
          98   1.29187776347340       0.985757604090924     
  9.964296733382688E-002  2.798720759327711E-002  3.309624522395033E-002
  3.846836640739556E-002 -1.101011422577400E-002
          99   1.29802850377068       0.985570898429281     
  9.936031808287236E-002  2.814781995158089E-002  3.327629326918907E-002
  3.785675458128408E-002 -1.120981476319691E-002
         100   1.30426776967532       0.985412107572257     
  9.906268971932471E-002  2.831364698608407E-002  3.343529900757562E-002
  3.726938407474027E-002 -1.140467584330436E-002
         101   1.31059605100808       0.985278102027832     
  9.875011785946888E-002  2.848300416640437E-002  3.357389531862896E-002
  3.670591277927808E-002 -1.159448801878434E-002
         102   1.31701381101262       0.985163525020862     
  9.842242847550266E-002  2.865458336413218E-002  3.369282855073470E-002
  3.616526373810127E-002 -1.177880715003199E-002
         103   1.32352148526559       0.985064963718995     
  9.807969873696300E-002  2.882741263335287E-002  3.379283574140903E-002
  3.564650256382002E-002 -1.195698431070373E-002
         104   1.33011948058098       0.984982620433751     
  9.772244943984962E-002  2.899970483197556E-002  3.387455717561147E-002
  3.514902348691705E-002 -1.212853890039096E-002
         105   1.33680817391012       0.984918046952493     
  9.735131358462869E-002  2.916880713193604E-002  3.393854074886943E-002
  3.467235053612897E-002 -1.229334317533881E-002
         106   1.34358791123894       0.984871638004104     
  9.696667581424452E-002  2.933270042601832E-002  3.398529131552071E-002
  3.421623456035962E-002 -1.245152054967111E-002
         107   1.35045900648403       0.984842431570362     
  9.656858625694910E-002  2.949103919747176E-002  3.401531796383366E-002
  3.378065135975448E-002 -1.260326773125224E-002
         108   1.35742174038927       0.984829712733585     
  9.615687887469282E-002  2.964533034926942E-002  3.402922691987255E-002
  3.336535614074257E-002 -1.274861832706227E-002
         109   1.36447635942490       0.984834924071916     
  9.573141368824598E-002  2.979828128946138E-002  3.402777258363561E-002
  3.296954381443231E-002 -1.288730932405381E-002
         110   1.37162307469064       0.984862537646129     
  9.529230427479271E-002  2.995180645441731E-002  3.401170536044947E-002
  3.259196902961378E-002 -1.301901519127560E-002
         111   1.37886206082501       0.984919376887587     
  9.483995975889431E-002  3.010585832529256E-002  3.398154770415725E-002
  3.223140471428283E-002 -1.314365008764867E-002
         112   1.38619345492273       0.985013345653054     
  9.437498823075949E-002  3.025948014976909E-002  3.393756413812059E-002
  3.188744018323002E-002 -1.326128597973097E-002
         113   1.39361735546222       0.985152685248943     
  9.389823821011282E-002  3.041175114356076E-002  3.387991019370434E-002
  3.156079562457957E-002 -1.337193961366727E-002
         114   1.40113382124542       0.985345381213398     
  9.341100426967909E-002  3.056141708804216E-002  3.380872874330840E-002
  3.125254790316976E-002 -1.347551885125015E-002
         115   1.40874287035193       0.985598117112002     
  9.291489519301394E-002  3.070618354245225E-002  3.372407035207772E-002
  3.096275432328719E-002 -1.357184364027146E-002
         116   1.41644447910994       0.985914841891798     
  9.241117599310375E-002  3.084303613246053E-002  3.362574277310000E-002
  3.068968902521822E-002 -1.366078383351256E-002
         117   1.42423858108597       0.986295326520662     
  9.190032122828634E-002  3.097094582412074E-002  3.351333747812620E-002
  3.043075762473472E-002 -1.374228549791220E-002
         118   1.43212506609588       0.986736039764514     
  9.138257786077222E-002  3.109218891594734E-002  3.338658641215890E-002
  3.018350938745184E-002 -1.381594047320421E-002
         119   1.44010377923958       0.987234337811836     
  9.085893385775179E-002  3.120939241273535E-002  3.324566351215588E-002
  2.994525407998917E-002 -1.388074956874293E-002
         120   1.44817451996164       0.987790935066200     
  9.033092277144580E-002  3.132255470367851E-002  3.309090808703481E-002
  2.971315304409353E-002 -1.393592944980912E-002
         121   1.45633704114049       0.988407362690506     
  8.979922650413522E-002  3.143116555684433E-002  3.292235557306451E-002
  2.948550560516433E-002 -1.398163657171370E-002
         122   1.46459104820845       0.989082464503770     
  8.926280629335644E-002  3.153717208209161E-002  3.273972678228731E-002
  2.926232528510299E-002 -1.401873830938763E-002
         123   1.47293619830522       0.989811368958038     
  8.871936005175263E-002  3.164275118705950E-002  3.254273274174610E-002
  2.904442320361778E-002 -1.404856548046553E-002
         124   1.48137209946730       0.990586391080169     
  8.816627088280299E-002  3.174766818944152E-002  3.233143647296854E-002
  2.883227902802378E-002 -1.407276944706065E-002
         125   1.48989830985582       0.991398660556847     
  8.760140219108785E-002  3.184912198377310E-002  3.210653425123614E-002
  2.862618736248562E-002 -1.409298746792956E-002
         126   1.49851433702528       0.992240330465822     
  8.702384998371115E-002  3.194367682148047E-002  3.186929689805956E-002
  2.842511940098224E-002 -1.410997884788939E-002
         127   1.50721963723579       0.993107969872354     
  8.643454831600171E-002  3.203017115700157E-002  3.162127099045457E-002
  2.822531720313287E-002 -1.412279990689431E-002
         128   1.51601361481118       0.994004507904084     
  8.583588669361793E-002  3.210957695297312E-002  3.136391144793053E-002
  2.802261485077799E-002 -1.412980016392761E-002
         129   1.52489562154555       0.994936465647669     
  8.523015262778558E-002  3.218156602051070E-002  3.109826913742089E-002
  2.781482544736147E-002 -1.413045987280304E-002
         130   1.53386495616060       0.995909119281646     
  8.461826361685570E-002  3.224356522505178E-002  3.082502617024523E-002
  2.760137171993002E-002 -1.412557100637010E-002
         131   1.54292086381626       0.996922942217169     
  8.399991603483789E-002  3.229509967940780E-002  3.054474743484602E-002
  2.738363985586247E-002 -1.411595345327420E-002
         132   1.55206253567680       0.997973679636706     
  8.337491015285725E-002  3.233995894190567E-002  3.025819040166171E-002
  2.716390486808081E-002 -1.410134786008536E-002
         133   1.56128910853490       0.999058136170662     
  8.274466330165178E-002  3.238150082405322E-002  2.996660734142960E-002
  2.694137370846958E-002 -1.408037912684298E-002
         134   1.57059966449576        1.00017865611115     
  8.211194638735213E-002  3.241938590440663E-002  2.967137987016171E-002
  2.671232805525164E-002 -1.405172377361753E-002
         135   1.57999323072348        1.00134016884547     
  8.147880376483738E-002  3.244986545880801E-002  2.937323964520135E-002
  2.647249396640564E-002 -1.401533355379940E-002
         136   1.58946877925175        1.00254754327515     
  8.084570406455903E-002  3.246868586921947E-002  2.907230835877624E-002
  2.621723930906848E-002 -1.397187592828790E-002
         137   1.59902522686082        1.00380701063905     
  8.021287197066081E-002  3.247539404556377E-002  2.876879713424663E-002
  2.594443802695837E-002 -1.392119364376150E-002
         138   1.60866143502264        1.00512557266734     
  7.958123500986965E-002  3.247223544467026E-002  2.846316662155879E-002
  2.565973126875297E-002 -1.386222272310424E-002
         139   1.61837620991598        1.00650855010392     
  7.895140627416136E-002  3.246003097886807E-002  2.815557874727067E-002
  2.537462874137208E-002 -1.379477276200956E-002
         140   1.62816830251302        1.00795836198538     
  7.832270268805096E-002  3.243859186175713E-002  2.784584251697757E-002
  2.509675654675037E-002 -1.372029972114984E-002
         141   1.63803640873913        1.00947378053831     
  7.769423621653725E-002  3.240667568746036E-002  2.753414028691754E-002
  2.482689897208747E-002 -1.364027219001521E-002
         142   1.64797916970700        1.01105026151567     
  7.706612218497071E-002  3.236154199310004E-002  2.722124382190871E-002
  2.456434449518000E-002 -1.355511397854541E-002
         143   1.65799517202658        1.01268179776544     
  7.643863423161697E-002  3.230231623894264E-002  2.690773430335156E-002
  2.430836863298448E-002 -1.346473904386342E-002
         144   1.66808294819172        1.01436196470069     
  7.581122687194926E-002  3.223118797105573E-002  2.659314584772077E-002
  2.405656339660830E-002 -1.336925455279221E-002
         145   1.67824097704446        1.01608289527805     
  7.518299399063504E-002  3.215115592562134E-002  2.627605319973773E-002
  2.380737229970366E-002 -1.326884423733482E-002
         146   1.68846768431786        1.01783640986719     
  7.455335755809041E-002  3.206342468000090E-002  2.595493130975674E-002
  2.356423666546421E-002 -1.316351133679299E-002
         147   1.69876144325768        1.01962129768179     
  7.392267091496310E-002  3.196527974179797E-002  2.562922472909593E-002
  2.333425043795587E-002 -1.305341139341173E-002
         148   1.70912057532362        1.02144711224033     
  7.329259171411454E-002  3.185300095402943E-002  2.530030001217469E-002
  2.312284897681400E-002 -1.293899162682388E-002
         149   1.71954335097002        1.02332363597342     
  7.266494545111919E-002  3.172914836351293E-002  2.497124282063607E-002
  2.292997711611715E-002 -1.282023918727601E-002
         150   1.73002799050618        1.02524825248204     
  7.204001487270051E-002  3.160293908570289E-002  2.464510448046902E-002
  2.275017956889153E-002 -1.269652053836744E-002
         151   1.74057266503617        1.02720916462801     
  7.141685127587286E-002  3.148008581188599E-002  2.432357813493768E-002
  2.257545622234712E-002 -1.256762967617871E-002
         152   1.75117549747755        1.02919764754492     
  7.079502311223061E-002  3.135557879145501E-002  2.400728478805823E-002
  2.239756201173570E-002 -1.243460139492113E-002
         153   1.76183456365858        1.03121356654757     
  7.017534420217336E-002  3.121989385311652E-002  2.369677706036767E-002
  2.220908097889590E-002 -1.229824049634231E-002
         154   1.77254789349306        1.03326230411888     
  6.955930619066931E-002  3.106764274232821E-002  2.339257597617969E-002
  2.200622833941494E-002 -1.215791873384135E-002
         155   1.78331347223172        1.03534734978837     
  6.894799370953053E-002  3.089590977686063E-002  2.309465885239731E-002
  2.178847933139264E-002 -1.201305283382991E-002
         156   1.79412924178905        1.03746438678000     
  6.834131647781587E-002  3.070034311918746E-002  2.280229256052979E-002
  2.155512576808655E-002 -1.186433646824678E-002
         157   1.80499310214408        1.03960144888831     
  6.773801089973835E-002  3.048109787409725E-002  2.251376394334474E-002
  2.131018350814655E-002 -1.171274541084506E-002
         158   1.81590291281347        1.04174075653006     
  6.713551653332600E-002  3.024685672986216E-002  2.222615140358764E-002
  2.106295150939813E-002 -1.155900251324170E-002
         159   1.82685649439508        1.04385886152973     
  6.652995675247692E-002  3.000872380042829E-002  2.193615384594962E-002
  2.082063136924913E-002 -1.140458976065019E-002
         160   1.83785163017996        1.04592978396360     
  6.591738172805413E-002  2.977692941155974E-002  2.164170548061022E-002
  2.058495584039865E-002 -1.125109805677824E-002
         161   1.84888606783051        1.04793334284282     
  6.529563004061342E-002  2.955868763331493E-002  2.134250343912302E-002
  2.035438396028272E-002 -1.109872724241101E-002
         162   1.85995752112235        1.04986311350698     
  6.466509089544666E-002  2.935496892478362E-002  2.103935392620797E-002
  2.012492200484108E-002 -1.094622738531905E-002
         163   1.87106367174734        1.05172642781971     
  6.402799055938796E-002  2.915996879676563E-002  2.073335488023426E-002
  1.988945398035294E-002 -1.079201030955511E-002
         164   1.88220217117474        1.05353486098253     