# Convergence of drag with grid size, sst-v model
variables="N","h^2=1/N","h=sqrt(1/N)","C_D"
zone t="CFL3D"
208896.  4.78707e-6  2.18794e-3  0.57066479459E-02
 52224.  1.91483e-5  4.37588e-3  0.56911430844E-02
 13056.  7.65931e-5  8.75175e-3  0.56519391944E-02
  3264.  3.06373e-4  1.75035e-2  0.55701398824E-02
   816.  1.22549e-3  3.50070e-2  0.54124620346E-02
zone t="FUN3D"
208896.  4.78707e-6  2.18794e-3  0.5688347E-02
 52224.  1.91483e-5  4.37588e-3  0.5642614E-02
 13056.  7.65931e-5  8.75175e-3  0.5546579E-02
  3264.  3.06373e-4  1.75035e-2  0.5357368E-02
   816.  1.22549e-3  3.50070e-2  0.5023983E-02
