variables="dum1","x","dum2","dum3","cf","dum4","dum5","dum6","dum7","dum8"
ZONE T="USM3D"
  209441   5.000000E-04  -5.000000E-01   0.000000E+00   2.665686E-02   2.665724E-02   2.665686E-02  -1.798418E-21   1.427284E-04   0.000000E+00
  209442   1.500984E-03  -5.000000E-01   0.000000E+00   6.882681E-03   6.882911E-03   6.882681E-03   4.538910E-22  -5.627126E-05   0.000000E+00
  209443   2.503946E-03  -5.000000E-01   0.000000E+00   5.794538E-03   5.794544E-03   5.794538E-03  -3.560856E-21   7.800425E-06   0.000000E+00
  209444   3.508906E-03  -5.000000E-01   0.000000E+00   5.486269E-03   5.486269E-03   5.486269E-03  -2.114859E-21  -4.855367E-07   0.000000E+00
  209445   4.515883E-03  -5.000000E-01   0.000000E+00   5.310351E-03   5.310351E-03   5.310351E-03  -1.077892E-21   1.175834E-08   0.000000E+00
  209446   5.524896E-03  -5.000000E-01   0.000000E+00   5.196807E-03   5.196807E-03   5.196807E-03   9.974567E-22   2.761996E-08   0.000000E+00
  209447   6.535965E-03  -5.000000E-01   0.000000E+00   5.112148E-03   5.112148E-03   5.112148E-03   8.184588E-22   1.587643E-08   0.000000E+00
  209448   7.549111E-03  -5.000000E-01   0.000000E+00   5.044326E-03   5.044326E-03   5.044326E-03   1.626940E-21   1.424305E-08   0.000000E+00
  209449   8.564353E-03  -5.000000E-01   0.000000E+00   4.987443E-03   4.987443E-03   4.987443E-03   1.371347E-21   1.207555E-08   0.000000E+00
  209450   9.581711E-03  -5.000000E-01   0.000000E+00   4.938463E-03   4.938463E-03   4.938463E-03   5.907178E-22   1.054536E-08   0.000000E+00
  209451   1.060121E-02  -5.000000E-01   0.000000E+00   4.895448E-03   4.895448E-03   4.895448E-03   2.647224E-22   9.325339E-09   0.000000E+00
  209452   1.162286E-02  -5.000000E-01   0.000000E+00   4.857020E-03   4.857020E-03   4.857020E-03   1.267644E-22   8.388720E-09   0.000000E+00
  209453   1.264669E-02  -5.000000E-01   0.000000E+00   4.822147E-03   4.822147E-03   4.822147E-03  -4.186952E-23   7.658138E-09   0.000000E+00
  209454   1.367272E-02  -5.000000E-01   0.000000E+00   4.790058E-03   4.790058E-03   4.790058E-03   6.160276E-22   7.082114E-09   0.000000E+00
  209455   1.470097E-02  -5.000000E-01   0.000000E+00   4.760184E-03   4.760184E-03   4.760184E-03   1.605572E-21   6.618177E-09   0.000000E+00
  209456   1.573146E-02  -5.000000E-01   0.000000E+00   4.732108E-03   4.732108E-03   4.732108E-03   1.249339E-21   6.235580E-09   0.000000E+00
  209457   1.676421E-02  -5.000000E-01   0.000000E+00   4.705522E-03   4.705522E-03   4.705522E-03   1.638518E-22   5.913213E-09   0.000000E+00
  209458   1.779924E-02  -5.000000E-01   0.000000E+00   4.680199E-03   4.680199E-03   4.680199E-03  -1.652544E-22   5.636575E-09   0.000000E+00
  209459   1.883658E-02  -5.000000E-01   0.000000E+00   4.655964E-03   4.655964E-03   4.655964E-03   2.217169E-21   5.394401E-09   0.000000E+00
  209460   1.987625E-02  -5.000000E-01   0.000000E+00   4.632683E-03   4.632683E-03   4.632683E-03   5.007943E-22   5.179969E-09   0.000000E+00
  209461   2.091826E-02  -5.000000E-01   0.000000E+00   4.610252E-03   4.610252E-03   4.610252E-03   7.623115E-21   4.986870E-09   0.000000E+00
  209462   2.196265E-02  -5.000000E-01   0.000000E+00   4.588585E-03   4.588585E-03   4.588585E-03   3.744144E-21   4.811976E-09   0.000000E+00
  209463   2.300943E-02  -5.000000E-01   0.000000E+00   4.567613E-03   4.567613E-03   4.567613E-03   8.947663E-21   4.651458E-09   0.000000E+00
  209464   2.405862E-02  -5.000000E-01   0.000000E+00   4.547279E-03   4.547279E-03   4.547279E-03   6.824315E-22   4.503195E-09   0.000000E+00
  209465   2.511025E-02  -5.000000E-01   0.000000E+00   4.527535E-03   4.527535E-03   4.527535E-03  -3.157116E-22   4.365474E-09   0.000000E+00
  209466   2.616434E-02  -5.000000E-01   0.000000E+00   4.508338E-03   4.508338E-03   4.508338E-03  -2.491137E-21   4.237102E-09   0.000000E+00
  209467   2.722091E-02  -5.000000E-01   0.000000E+00   4.489653E-03   4.489653E-03   4.489653E-03  -1.608203E-21   4.116703E-09   0.000000E+00
  209468   2.827999E-02  -5.000000E-01   0.000000E+00   4.471447E-03   4.471447E-03   4.471447E-03  -1.635110E-21   4.003445E-09   0.000000E+00
  209469   2.934160E-02  -5.000000E-01   0.000000E+00   4.453693E-03   4.453693E-03   4.453693E-03  -1.276677E-21   3.896543E-09   0.000000E+00
  209470   3.040576E-02  -5.000000E-01   0.000000E+00   4.436365E-03   4.436365E-03   4.436365E-03   8.781970E-22   3.795345E-09   0.000000E+00
  209471   3.147249E-02  -5.000000E-01   0.000000E+00   4.419440E-03   4.419440E-03   4.419440E-03   4.797116E-22   3.699274E-09   0.000000E+00
  209472   3.254183E-02  -5.000000E-01   0.000000E+00   4.402898E-03   4.402898E-03   4.402898E-03   1.353896E-21   3.607852E-09   0.000000E+00
  209473   3.361379E-02  -5.000000E-01   0.000000E+00   4.386720E-03   4.386720E-03   4.386720E-03   1.025812E-21   3.520695E-09   0.000000E+00
  209474   3.468840E-02  -5.000000E-01   0.000000E+00   4.370891E-03   4.370891E-03   4.370891E-03   5.315129E-22   3.437432E-09   0.000000E+00
  209475   3.576568E-02  -5.000000E-01   0.000000E+00   4.355393E-03   4.355393E-03   4.355393E-03   5.466025E-21   3.357733E-09   0.000000E+00
  209476   3.684566E-02  -5.000000E-01   0.000000E+00   4.340213E-03   4.340213E-03   4.340213E-03   1.879859E-21   3.281418E-09   0.000000E+00
  209477   3.792835E-02  -5.000000E-01   0.000000E+00   4.325337E-03   4.325337E-03   4.325337E-03   1.310418E-21   3.208215E-09   0.000000E+00
  209478   3.901380E-02  -5.000000E-01   0.000000E+00   4.310753E-03   4.310753E-03   4.310753E-03   9.925368E-22   3.137927E-09   0.000000E+00
  209479   4.010201E-02  -5.000000E-01   0.000000E+00   4.296449E-03   4.296449E-03   4.296449E-03   7.338577E-22   3.070359E-09   0.000000E+00
  209480   4.119303E-02  -5.000000E-01   0.000000E+00   4.282414E-03   4.282414E-03   4.282414E-03   3.314976E-22   3.005302E-09   0.000000E+00
  209481   4.228686E-02  -5.000000E-01   0.000000E+00   4.268639E-03   4.268639E-03   4.268639E-03  -4.858949E-23   2.942636E-09   0.000000E+00
  209482   4.338354E-02  -5.000000E-01   0.000000E+00   4.255114E-03   4.255114E-03   4.255114E-03  -1.585772E-22   2.882226E-09   0.000000E+00
  209483   4.448310E-02  -5.000000E-01   0.000000E+00   4.241829E-03   4.241829E-03   4.241829E-03   1.446762E-21   2.823904E-09   0.000000E+00
  209484   4.558556E-02  -5.000000E-01   0.000000E+00   4.228777E-03   4.228777E-03   4.228777E-03   4.382998E-21   2.767514E-09   0.000000E+00
  209485   4.669094E-02  -5.000000E-01   0.000000E+00   4.215949E-03   4.215949E-03   4.215949E-03   3.461497E-21   2.713043E-09   0.000000E+00
  209486   4.779928E-02  -5.000000E-01   0.000000E+00   4.203339E-03   4.203339E-03   4.203339E-03   2.823650E-21   2.660313E-09   0.000000E+00
  209487   4.891059E-02  -5.000000E-01   0.000000E+00   4.190938E-03   4.190938E-03   4.190938E-03   1.234186E-21   2.609227E-09   0.000000E+00
  209488   5.002491E-02  -5.000000E-01   0.000000E+00   4.178741E-03   4.178741E-03   4.178741E-03   1.238356E-21   2.559767E-09   0.000000E+00
  209489   5.114227E-02  -5.000000E-01   0.000000E+00   4.166742E-03   4.166742E-03   4.166742E-03   1.707597E-22   2.511801E-09   0.000000E+00
  209490   5.226269E-02  -5.000000E-01   0.000000E+00   4.154933E-03   4.154933E-03   4.154933E-03   3.300779E-21   2.465255E-09   0.000000E+00
  209491   5.338620E-02  -5.000000E-01   0.000000E+00   4.143310E-03   4.143310E-03   4.143310E-03   4.001304E-22   2.420106E-09   0.000000E+00
  209492   5.451282E-02  -5.000000E-01   0.000000E+00   4.131867E-03   4.131867E-03   4.131867E-03   2.279405E-21   2.376255E-09   0.000000E+00
  209493   5.564259E-02  -5.000000E-01   0.000000E+00   4.120598E-03   4.120598E-03   4.120598E-03   4.416113E-21   2.333663E-09   0.000000E+00
  209494   5.677553E-02  -5.000000E-01   0.000000E+00   4.109499E-03   4.109499E-03   4.109499E-03   1.599089E-21   2.292273E-09   0.000000E+00
  209495   5.791168E-02  -5.000000E-01   0.000000E+00   4.098565E-03   4.098565E-03   4.098565E-03   3.522227E-22   2.252017E-09   0.000000E+00
  209496   5.905105E-02  -5.000000E-01   0.000000E+00   4.087792E-03   4.087792E-03   4.087792E-03  -7.924779E-22   2.212890E-09   0.000000E+00
  209497   6.019369E-02  -5.000000E-01   0.000000E+00   4.077174E-03   4.077174E-03   4.077174E-03   9.069314E-22   2.174801E-09   0.000000E+00
  209498   6.133962E-02  -5.000000E-01   0.000000E+00   4.066707E-03   4.066707E-03   4.066707E-03   5.617070E-22   2.137747E-09   0.000000E+00
  209499   6.248887E-02  -5.000000E-01   0.000000E+00   4.056388E-03   4.056388E-03   4.056388E-03   5.146645E-22   2.101655E-09   0.000000E+00
  209500   6.364146E-02  -5.000000E-01   0.000000E+00   4.046213E-03   4.046213E-03   4.046213E-03  -5.112541E-22   2.066515E-09   0.000000E+00
  209501   6.479744E-02  -5.000000E-01   0.000000E+00   4.036178E-03   4.036178E-03   4.036178E-03  -5.587769E-22   2.032274E-09   0.000000E+00
  209502   6.595683E-02  -5.000000E-01   0.000000E+00   4.026279E-03   4.026279E-03   4.026279E-03  -5.205658E-21   1.998907E-09   0.000000E+00
  209503   6.711965E-02  -5.000000E-01   0.000000E+00   4.016513E-03   4.016513E-03   4.016513E-03  -1.444863E-21   1.966383E-09   0.000000E+00
  209504   6.828595E-02  -5.000000E-01   0.000000E+00   4.006876E-03   4.006876E-03   4.006876E-03  -1.343590E-22   1.934665E-09   0.000000E+00
  209505   6.945576E-02  -5.000000E-01   0.000000E+00   3.997365E-03   3.997365E-03   3.997365E-03  -2.627318E-22   1.903723E-09   0.000000E+00
  209506   7.062910E-02  -5.000000E-01   0.000000E+00   3.987977E-03   3.987977E-03   3.987977E-03   5.274786E-23   1.873539E-09   0.000000E+00
  209507   7.180600E-02  -5.000000E-01   0.000000E+00   3.978709E-03   3.978709E-03   3.978709E-03   8.817377E-23   1.844088E-09   0.000000E+00
  209508   7.298650E-02  -5.000000E-01   0.000000E+00   3.969558E-03   3.969558E-03   3.969558E-03   2.914568E-22   1.815343E-09   0.000000E+00
  209509   7.417064E-02  -5.000000E-01   0.000000E+00   3.960522E-03   3.960522E-03   3.960522E-03   5.043512E-22   1.787269E-09   0.000000E+00
  209510   7.535844E-02  -5.000000E-01   0.000000E+00   3.951597E-03   3.951597E-03   3.951597E-03  -1.387191E-21   1.759863E-09   0.000000E+00
  209511   7.654994E-02  -5.000000E-01   0.000000E+00   3.942780E-03   3.942780E-03   3.942780E-03  -2.074816E-21   1.733077E-09   0.000000E+00
  209512   7.774517E-02  -5.000000E-01   0.000000E+00   3.934070E-03   3.934070E-03   3.934070E-03  -9.028076E-22   1.706914E-09   0.000000E+00
  209513   7.894416E-02  -5.000000E-01   0.000000E+00   3.925464E-03   3.925464E-03   3.925464E-03  -8.668044E-22   1.681346E-09   0.000000E+00
  209514   8.014695E-02  -5.000000E-01   0.000000E+00   3.916959E-03   3.916959E-03   3.916959E-03  -1.385298E-21   1.656360E-09   0.000000E+00
  209515   8.135357E-02  -5.000000E-01   0.000000E+00   3.908554E-03   3.908554E-03   3.908554E-03  -2.978625E-21   1.631928E-09   0.000000E+00
  209516   8.256406E-02  -5.000000E-01   0.000000E+00   3.900245E-03   3.900245E-03   3.900245E-03  -2.272623E-22   1.608035E-09   0.000000E+00
  209517   8.377846E-02  -5.000000E-01   0.000000E+00   3.892030E-03   3.892030E-03   3.892030E-03  -3.390237E-22   1.584665E-09   0.000000E+00
  209518   8.499679E-02  -5.000000E-01   0.000000E+00   3.883909E-03   3.883909E-03   3.883909E-03   8.055149E-23   1.561801E-09   0.000000E+00
  209519   8.621909E-02  -5.000000E-01   0.000000E+00   3.875878E-03   3.875878E-03   3.875878E-03   2.721277E-21   1.539435E-09   0.000000E+00
  209520   8.744540E-02  -5.000000E-01   0.000000E+00   3.867935E-03   3.867935E-03   3.867935E-03   2.759660E-22   1.517549E-09   0.000000E+00
  209521   8.867576E-02  -5.000000E-01   0.000000E+00   3.860079E-03   3.860079E-03   3.860079E-03   6.232694E-23   1.496123E-09   0.000000E+00
  209522   8.991020E-02  -5.000000E-01   0.000000E+00   3.852307E-03   3.852307E-03   3.852307E-03   8.411070E-23   1.475143E-09   0.000000E+00
  209523   9.114876E-02  -5.000000E-01   0.000000E+00   3.844619E-03   3.844619E-03   3.844619E-03  -1.934626E-21   1.454605E-09   0.000000E+00
  209524   9.239148E-02  -5.000000E-01   0.000000E+00   3.837011E-03   3.837011E-03   3.837011E-03  -4.868504E-21   1.434494E-09   0.000000E+00
  209525   9.363839E-02  -5.000000E-01   0.000000E+00   3.829483E-03   3.829483E-03   3.829483E-03  -1.233288E-21   1.414792E-09   0.000000E+00
  209526   9.488953E-02  -5.000000E-01   0.000000E+00   3.822033E-03   3.822033E-03   3.822033E-03   1.890168E-22   1.395490E-09   0.000000E+00
  209527   9.614494E-02  -5.000000E-01   0.000000E+00   3.814658E-03   3.814658E-03   3.814658E-03  -3.468493E-22   1.376579E-09   0.000000E+00
  209528   9.740467E-02  -5.000000E-01   0.000000E+00   3.807358E-03   3.807358E-03   3.807358E-03  -6.486257E-22   1.358044E-09   0.000000E+00
  209529   9.866874E-02  -5.000000E-01   0.000000E+00   3.800131E-03   3.800131E-03   3.800131E-03   7.520192E-22   1.339879E-09   0.000000E+00
  209530   9.993720E-02  -5.000000E-01   0.000000E+00   3.792976E-03   3.792976E-03   3.792976E-03  -4.074934E-21   1.322071E-09   0.000000E+00
  209531   1.012101E-01  -5.000000E-01   0.000000E+00   3.785891E-03   3.785891E-03   3.785891E-03  -4.013366E-21   1.304608E-09   0.000000E+00
  209532   1.024874E-01  -5.000000E-01   0.000000E+00   3.778874E-03   3.778874E-03   3.778874E-03  -1.431306E-21   1.287488E-09   0.000000E+00
  209533   1.037693E-01  -5.000000E-01   0.000000E+00   3.771924E-03   3.771924E-03   3.771924E-03  -3.585090E-21   1.270693E-09   0.000000E+00
  209534   1.050557E-01  -5.000000E-01   0.000000E+00   3.765040E-03   3.765040E-03   3.765040E-03   5.695868E-22   1.254222E-09   0.000000E+00
  209535   1.063467E-01  -5.000000E-01   0.000000E+00   3.758221E-03   3.758221E-03   3.758221E-03   2.169285E-21   1.238062E-09   0.000000E+00
  209536   1.076424E-01  -5.000000E-01   0.000000E+00   3.751465E-03   3.751465E-03   3.751465E-03  -5.227676E-21   1.222206E-09   0.000000E+00
  209537   1.089427E-01  -5.000000E-01   0.000000E+00   3.744772E-03   3.744772E-03   3.744772E-03  -5.158296E-21   1.206645E-09   0.000000E+00
  209538   1.102478E-01  -5.000000E-01   0.000000E+00   3.738139E-03   3.738139E-03   3.738139E-03  -2.931819E-22   1.191373E-09   0.000000E+00
  209539   1.115576E-01  -5.000000E-01   0.000000E+00   3.731565E-03   3.731565E-03   3.731565E-03   1.364793E-21   1.176384E-09   0.000000E+00
  209540   1.128722E-01  -5.000000E-01   0.000000E+00   3.725050E-03   3.725050E-03   3.725050E-03   2.102773E-21   1.161664E-09   0.000000E+00
  209541   1.141917E-01  -5.000000E-01   0.000000E+00   3.718593E-03   3.718593E-03   3.718593E-03   1.349455E-21   1.147212E-09   0.000000E+00
  209542   1.155160E-01  -5.000000E-01   0.000000E+00   3.712192E-03   3.712192E-03   3.712192E-03   2.140267E-22   1.133020E-09   0.000000E+00
  209543   1.168453E-01  -5.000000E-01   0.000000E+00   3.705846E-03   3.705846E-03   3.705846E-03  -6.419266E-25   1.119079E-09   0.000000E+00
  209544   1.181796E-01  -5.000000E-01   0.000000E+00   3.699554E-03   3.699554E-03   3.699554E-03  -5.685669E-23   1.105393E-09   0.000000E+00
  209545   1.195189E-01  -5.000000E-01   0.000000E+00   3.693316E-03   3.693316E-03   3.693316E-03   1.095424E-21   1.091944E-09   0.000000E+00
  209546   1.208633E-01  -5.000000E-01   0.000000E+00   3.687130E-03   3.687130E-03   3.687130E-03   4.275059E-23   1.078729E-09   0.000000E+00
  209547   1.222129E-01  -5.000000E-01   0.000000E+00   3.680995E-03   3.680995E-03   3.680995E-03   1.475740E-22   1.065742E-09   0.000000E+00
  209548   1.235676E-01  -5.000000E-01   0.000000E+00   3.674910E-03   3.674910E-03   3.674910E-03  -3.673972E-22   1.052981E-09   0.000000E+00
  209549   1.249275E-01  -5.000000E-01   0.000000E+00   3.668874E-03   3.668874E-03   3.668874E-03   8.178118E-22   1.040438E-09   0.000000E+00
  209550   1.262927E-01  -5.000000E-01   0.000000E+00   3.662887E-03   3.662887E-03   3.662887E-03  -1.255929E-21   1.028113E-09   0.000000E+00
  209551   1.276632E-01  -5.000000E-01   0.000000E+00   3.656948E-03   3.656948E-03   3.656948E-03   8.007321E-23   1.015990E-09   0.000000E+00
  209552   1.290391E-01  -5.000000E-01   0.000000E+00   3.651055E-03   3.651055E-03   3.651055E-03   1.116984E-23   1.004070E-09   0.000000E+00
  209553   1.304205E-01  -5.000000E-01   0.000000E+00   3.645208E-03   3.645208E-03   3.645208E-03  -1.547000E-21   9.923529E-10   0.000000E+00
  209554   1.318072E-01  -5.000000E-01   0.000000E+00   3.639406E-03   3.639406E-03   3.639406E-03  -1.255227E-21   9.808250E-10   0.000000E+00
  209555   1.331995E-01  -5.000000E-01   0.000000E+00   3.633649E-03   3.633649E-03   3.633649E-03  -1.088224E-21   9.694895E-10   0.000000E+00
  209556   1.345974E-01  -5.000000E-01   0.000000E+00   3.627935E-03   3.627935E-03   3.627935E-03  -4.457444E-22   9.583377E-10   0.000000E+00
  209557   1.360009E-01  -5.000000E-01   0.000000E+00   3.622263E-03   3.622263E-03   3.622263E-03  -7.720828E-22   9.473670E-10   0.000000E+00
  209558   1.374101E-01  -5.000000E-01   0.000000E+00   3.616634E-03   3.616634E-03   3.616634E-03   3.373099E-21   9.365757E-10   0.000000E+00
  209559   1.388251E-01  -5.000000E-01   0.000000E+00   3.611046E-03   3.611046E-03   3.611046E-03   1.343640E-21   9.259558E-10   0.000000E+00
  209560   1.402458E-01  -5.000000E-01   0.000000E+00   3.605498E-03   3.605498E-03   3.605498E-03   5.220907E-22   9.154991E-10   0.000000E+00
  209561   1.416723E-01  -5.000000E-01   0.000000E+00   3.599990E-03   3.599990E-03   3.599990E-03   2.065090E-22   9.052136E-10   0.000000E+00
  209562   1.431048E-01  -5.000000E-01   0.000000E+00   3.594521E-03   3.594521E-03   3.594521E-03  -2.965574E-22   8.950886E-10   0.000000E+00
  209563   1.445432E-01  -5.000000E-01   0.000000E+00   3.589090E-03   3.589090E-03   3.589090E-03  -9.150115E-22   8.851206E-10   0.000000E+00
  209564   1.459876E-01  -5.000000E-01   0.000000E+00   3.583698E-03   3.583698E-03   3.583698E-03  -3.871013E-22   8.753073E-10   0.000000E+00
  209565   1.474381E-01  -5.000000E-01   0.000000E+00   3.578342E-03   3.578342E-03   3.578342E-03  -7.974545E-22   8.656465E-10   0.000000E+00
  209566   1.488947E-01  -5.000000E-01   0.000000E+00   3.573023E-03   3.573023E-03   3.573023E-03  -3.078177E-23   8.561334E-10   0.000000E+00
  209567   1.503575E-01  -5.000000E-01   0.000000E+00   3.567740E-03   3.567740E-03   3.567740E-03  -1.196930E-21   8.467633E-10   0.000000E+00
  209568   1.518265E-01  -5.000000E-01   0.000000E+00   3.562492E-03   3.562492E-03   3.562492E-03  -5.910873E-22   8.375309E-10   0.000000E+00
  209569   1.533019E-01  -5.000000E-01   0.000000E+00   3.557278E-03   3.557278E-03   3.557278E-03  -2.578059E-22   8.284406E-10   0.000000E+00
  209570   1.547836E-01  -5.000000E-01   0.000000E+00   3.552099E-03   3.552099E-03   3.552099E-03  -3.114277E-22   8.194864E-10   0.000000E+00
  209571   1.562717E-01  -5.000000E-01   0.000000E+00   3.546953E-03   3.546953E-03   3.546953E-03   2.683151E-22   8.106634E-10   0.000000E+00
  209572   1.577663E-01  -5.000000E-01   0.000000E+00   3.541840E-03   3.541840E-03   3.541840E-03   1.799732E-22   8.019723E-10   0.000000E+00
  209573   1.592675E-01  -5.000000E-01   0.000000E+00   3.536760E-03   3.536760E-03   3.536760E-03   3.799833E-23   7.934096E-10   0.000000E+00
  209574   1.607753E-01  -5.000000E-01   0.000000E+00   3.531712E-03   3.531712E-03   3.531712E-03   3.415340E-21   7.849689E-10   0.000000E+00
  209575   1.622897E-01  -5.000000E-01   0.000000E+00   3.526694E-03   3.526694E-03   3.526694E-03   1.959755E-22   7.766492E-10   0.000000E+00
  209576   1.638109E-01  -5.000000E-01   0.000000E+00   3.521708E-03   3.521708E-03   3.521708E-03   1.345282E-21   7.684515E-10   0.000000E+00
  209577   1.653390E-01  -5.000000E-01   0.000000E+00   3.516752E-03   3.516752E-03   3.516752E-03   2.003442E-22   7.603694E-10   0.000000E+00
  209578   1.668738E-01  -5.000000E-01   0.000000E+00   3.511826E-03   3.511826E-03   3.511826E-03  -5.385885E-22   7.524043E-10   0.000000E+00
  209579   1.684157E-01  -5.000000E-01   0.000000E+00   3.506929E-03   3.506929E-03   3.506929E-03   4.477041E-23   7.445500E-10   0.000000E+00
  209580   1.699645E-01  -5.000000E-01   0.000000E+00   3.502061E-03   3.502061E-03   3.502061E-03  -2.174414E-22   7.368027E-10   0.000000E+00
  209581   1.715204E-01  -5.000000E-01   0.000000E+00   3.497221E-03   3.497221E-03   3.497221E-03   2.270275E-22   7.291637E-10   0.000000E+00
  209582   1.730835E-01  -5.000000E-01   0.000000E+00   3.492409E-03   3.492409E-03   3.492409E-03   9.403634E-22   7.216348E-10   0.000000E+00
  209583   1.746538E-01  -5.000000E-01   0.000000E+00   3.487625E-03   3.487625E-03   3.487625E-03   3.750320E-22   7.142082E-10   0.000000E+00
  209584   1.762314E-01  -5.000000E-01   0.000000E+00   3.482868E-03   3.482868E-03   3.482868E-03  -1.174715E-21   7.068823E-10   0.000000E+00
  209585   1.778163E-01  -5.000000E-01   0.000000E+00   3.478137E-03   3.478137E-03   3.478137E-03   3.327329E-22   6.996585E-10   0.000000E+00
  209586   1.794087E-01  -5.000000E-01   0.000000E+00   3.473432E-03   3.473432E-03   3.473432E-03   8.343513E-23   6.925304E-10   0.000000E+00
  209587   1.810086E-01  -5.000000E-01   0.000000E+00   3.468753E-03   3.468753E-03   3.468753E-03  -3.382276E-21   6.855019E-10   0.000000E+00
  209588   1.826160E-01  -5.000000E-01   0.000000E+00   3.464100E-03   3.464100E-03   3.464100E-03  -8.484871E-22   6.785609E-10   0.000000E+00
  209589   1.842312E-01  -5.000000E-01   0.000000E+00   3.459471E-03   3.459471E-03   3.459471E-03  -6.612220E-22   6.717138E-10   0.000000E+00
  209590   1.858541E-01  -5.000000E-01   0.000000E+00   3.454867E-03   3.454867E-03   3.454867E-03  -2.882480E-22   6.649591E-10   0.000000E+00
  209591   1.874847E-01  -5.000000E-01   0.000000E+00   3.450287E-03   3.450287E-03   3.450287E-03  -3.911854E-22   6.582933E-10   0.000000E+00
  209592   1.891233E-01  -5.000000E-01   0.000000E+00   3.445731E-03   3.445731E-03   3.445731E-03  -8.070048E-23   6.517148E-10   0.000000E+00
  209593   1.907699E-01  -5.000000E-01   0.000000E+00   3.441198E-03   3.441198E-03   3.441198E-03   1.155018E-22   6.452220E-10   0.000000E+00
  209594   1.924245E-01  -5.000000E-01   0.000000E+00   3.436689E-03   3.436689E-03   3.436689E-03   7.966406E-24   6.388138E-10   0.000000E+00
  209595   1.940872E-01  -5.000000E-01   0.000000E+00   3.432201E-03   3.432201E-03   3.432201E-03  -7.204312E-23   6.324859E-10   0.000000E+00
  209596   1.957582E-01  -5.000000E-01   0.000000E+00   3.427737E-03   3.427737E-03   3.427737E-03   1.749417E-23   6.262351E-10   0.000000E+00
  209597   1.974375E-01  -5.000000E-01   0.000000E+00   3.423294E-03   3.423294E-03   3.423294E-03  -2.105808E-22   6.200660E-10   0.000000E+00
  209598   1.991251E-01  -5.000000E-01   0.000000E+00   3.418872E-03   3.418872E-03   3.418872E-03  -1.232051E-22   6.139798E-10   0.000000E+00
  209599   2.008212E-01  -5.000000E-01   0.000000E+00   3.414472E-03   3.414472E-03   3.414472E-03   5.192112E-22   6.079672E-10   0.000000E+00
  209600   2.025259E-01  -5.000000E-01   0.000000E+00   3.410093E-03   3.410093E-03   3.410093E-03   1.313884E-21   6.020321E-10   0.000000E+00
  209601   2.042392E-01  -5.000000E-01   0.000000E+00   3.405734E-03   3.405734E-03   3.405734E-03   1.629583E-22   5.961641E-10   0.000000E+00
  209602   2.059613E-01  -5.000000E-01   0.000000E+00   3.401395E-03   3.401395E-03   3.401395E-03  -2.075318E-22   5.903720E-10   0.000000E+00
  209603   2.076922E-01  -5.000000E-01   0.000000E+00   3.397077E-03   3.397077E-03   3.397077E-03  -2.457029E-21   5.846529E-10   0.000000E+00
  209604   2.094320E-01  -5.000000E-01   0.000000E+00   3.392778E-03   3.392778E-03   3.392778E-03  -1.303555E-21   5.790014E-10   0.000000E+00
  209605   2.111808E-01  -5.000000E-01   0.000000E+00   3.388498E-03   3.388498E-03   3.388498E-03  -3.325073E-22   5.734173E-10   0.000000E+00
  209606   2.129388E-01  -5.000000E-01   0.000000E+00   3.384237E-03   3.384237E-03   3.384237E-03  -4.200861E-22   5.679056E-10   0.000000E+00
  209607   2.147059E-01  -5.000000E-01   0.000000E+00   3.379995E-03   3.379995E-03   3.379995E-03  -9.378754E-23   5.624570E-10   0.000000E+00
  209608   2.164823E-01  -5.000000E-01   0.000000E+00   3.375771E-03   3.375771E-03   3.375771E-03   1.277724E-22   5.570739E-10   0.000000E+00
  209609   2.182682E-01  -5.000000E-01   0.000000E+00   3.371566E-03   3.371566E-03   3.371566E-03   7.488906E-23   5.517552E-10   0.000000E+00
  209610   2.200635E-01  -5.000000E-01   0.000000E+00   3.367378E-03   3.367378E-03   3.367378E-03  -1.049143E-21   5.464992E-10   0.000000E+00
  209611   2.218684E-01  -5.000000E-01   0.000000E+00   3.363208E-03   3.363208E-03   3.363208E-03  -1.438887E-22   5.413055E-10   0.000000E+00
  209612   2.236830E-01  -5.000000E-01   0.000000E+00   3.359055E-03   3.359055E-03   3.359055E-03   1.590298E-22   5.361696E-10   0.000000E+00
  209613   2.255074E-01  -5.000000E-01   0.000000E+00   3.354919E-03   3.354919E-03   3.354919E-03  -4.428770E-22   5.310929E-10   0.000000E+00
  209614   2.273417E-01  -5.000000E-01   0.000000E+00   3.350799E-03   3.350799E-03   3.350799E-03   2.874088E-23   5.260790E-10   0.000000E+00
  209615   2.291860E-01  -5.000000E-01   0.000000E+00   3.346696E-03   3.346696E-03   3.346696E-03   3.301913E-22   5.211222E-10   0.000000E+00
  209616   2.310404E-01  -5.000000E-01   0.000000E+00   3.342609E-03   3.342609E-03   3.342609E-03  -3.411665E-22   5.162235E-10   0.000000E+00
  209617   2.329051E-01  -5.000000E-01   0.000000E+00   3.338538E-03   3.338538E-03   3.338538E-03  -1.139661E-22   5.113795E-10   0.000000E+00
  209618   2.347801E-01  -5.000000E-01   0.000000E+00   3.334483E-03   3.334483E-03   3.334483E-03   1.487672E-23   5.065878E-10   0.000000E+00
  209619   2.366655E-01  -5.000000E-01   0.000000E+00   3.330443E-03   3.330443E-03   3.330443E-03   1.577023E-21   5.018485E-10   0.000000E+00
  209620   2.385615E-01  -5.000000E-01   0.000000E+00   3.326419E-03   3.326419E-03   3.326419E-03   1.897756E-21   4.971688E-10   0.000000E+00
  209621   2.404681E-01  -5.000000E-01   0.000000E+00   3.322409E-03   3.322409E-03   3.322409E-03   1.058230E-21   4.925388E-10   0.000000E+00
  209622   2.423856E-01  -5.000000E-01   0.000000E+00   3.318414E-03   3.318414E-03   3.318414E-03   2.101813E-22   4.879620E-10   0.000000E+00
  209623   2.443139E-01  -5.000000E-01   0.000000E+00   3.314433E-03   3.314433E-03   3.314433E-03   4.266502E-21   4.834318E-10   0.000000E+00
  209624   2.462533E-01  -5.000000E-01   0.000000E+00   3.310466E-03   3.310466E-03   3.310466E-03   1.412125E-21   4.789505E-10   0.000000E+00
  209625   2.482038E-01  -5.000000E-01   0.000000E+00   3.306514E-03   3.306514E-03   3.306514E-03   1.021085E-21   4.745200E-10   0.000000E+00
  209626   2.501656E-01  -5.000000E-01   0.000000E+00   3.302575E-03   3.302575E-03   3.302575E-03   2.762690E-21   4.701419E-10   0.000000E+00
  209627   2.521388E-01  -5.000000E-01   0.000000E+00   3.298650E-03   3.298650E-03   3.298650E-03   8.907258E-22   4.658069E-10   0.000000E+00
  209628   2.541235E-01  -5.000000E-01   0.000000E+00   3.294737E-03   3.294737E-03   3.294737E-03  -3.930807E-21   4.615174E-10   0.000000E+00
  209629   2.561199E-01  -5.000000E-01   0.000000E+00   3.290838E-03   3.290838E-03   3.290838E-03  -1.865090E-21   4.572763E-10   0.000000E+00
  209630   2.581280E-01  -5.000000E-01   0.000000E+00   3.286952E-03   3.286952E-03   3.286952E-03   1.422445E-21   4.530814E-10   0.000000E+00
  209631   2.601481E-01  -5.000000E-01   0.000000E+00   3.283079E-03   3.283079E-03   3.283079E-03  -7.429950E-22   4.489316E-10   0.000000E+00
  209632   2.621802E-01  -5.000000E-01   0.000000E+00   3.279217E-03   3.279217E-03   3.279217E-03  -1.467188E-21   4.448214E-10   0.000000E+00
  209633   2.642245E-01  -5.000000E-01   0.000000E+00   3.275368E-03   3.275368E-03   3.275368E-03  -1.007553E-21   4.407538E-10   0.000000E+00
  209634   2.662810E-01  -5.000000E-01   0.000000E+00   3.271531E-03   3.271531E-03   3.271531E-03  -2.858856E-22   4.367339E-10   0.000000E+00
  209635   2.683501E-01  -5.000000E-01   0.000000E+00   3.267706E-03   3.267706E-03   3.267706E-03  -5.414193E-23   4.327553E-10   0.000000E+00
  209636   2.704317E-01  -5.000000E-01   0.000000E+00   3.263892E-03   3.263892E-03   3.263892E-03   3.593364E-23   4.288145E-10   0.000000E+00
  209637   2.725261E-01  -5.000000E-01   0.000000E+00   3.260090E-03   3.260090E-03   3.260090E-03   2.877131E-23   4.249129E-10   0.000000E+00
  209638   2.746334E-01  -5.000000E-01   0.000000E+00   3.256299E-03   3.256299E-03   3.256299E-03  -2.542559E-21   4.210586E-10   0.000000E+00
  209639   2.767537E-01  -5.000000E-01   0.000000E+00   3.252518E-03   3.252518E-03   3.252518E-03  -3.096603E-21   4.172369E-10   0.000000E+00
  209640   2.788872E-01  -5.000000E-01   0.000000E+00   3.248749E-03   3.248749E-03   3.248749E-03  -1.663145E-21   4.134549E-10   0.000000E+00
  209641   2.810341E-01  -5.000000E-01   0.000000E+00   3.244990E-03   3.244990E-03   3.244990E-03  -7.370627E-22   4.097140E-10   0.000000E+00
  209642   2.831944E-01  -5.000000E-01   0.000000E+00   3.241242E-03   3.241242E-03   3.241242E-03   6.810494E-22   4.060084E-10   0.000000E+00
  209643   2.853684E-01  -5.000000E-01   0.000000E+00   3.237503E-03   3.237503E-03   3.237503E-03   8.708421E-22   4.023408E-10   0.000000E+00
  209644   2.875562E-01  -5.000000E-01   0.000000E+00   3.233775E-03   3.233775E-03   3.233775E-03   7.888352E-22   3.987101E-10   0.000000E+00
  209645   2.897579E-01  -5.000000E-01   0.000000E+00   3.230057E-03   3.230057E-03   3.230057E-03  -1.901927E-21   3.951141E-10   0.000000E+00
  209646   2.919738E-01  -5.000000E-01   0.000000E+00   3.226348E-03   3.226348E-03   3.226348E-03  -1.040697E-21   3.915548E-10   0.000000E+00
  209647   2.942040E-01  -5.000000E-01   0.000000E+00   3.222649E-03   3.222649E-03   3.222649E-03  -1.055720E-21   3.880313E-10   0.000000E+00