# Velocity results from CFL3D, Re_H=36,000, k-kL-MEAH2015 model
# Note: computed results were quasi-steady
VARIABLES = "x/H","y/H","u/Uref"
ZONE T="x/H=-4"
 -4.000000000E+00 1.000000000E+00 3.900413169E-03
 -4.000000000E+00 1.000150442E+00 7.923430763E-03
 -4.000000000E+00 1.000310659E+00 1.622711867E-02
 -4.000000000E+00 1.000481486E+00 2.505181916E-02
 -4.000000000E+00 1.000663638E+00 3.441484272E-02
 -4.000000000E+00 1.000857592E+00 4.433013871E-02
 -4.000000000E+00 1.001064420E+00 5.480741709E-02
 -4.000000000E+00 1.001284838E+00 6.585124135E-02
 -4.000000000E+00 1.001519799E+00 7.746024430E-02
 -4.000000000E+00 1.001770139E+00 8.962631226E-02
 -4.000000000E+00 1.002037048E+00 1.023341194E-01
 -4.000000000E+00 1.002321362E+00 1.155608222E-01
 -4.000000000E+00 1.002624512E+00 1.292759180E-01
 -4.000000000E+00 1.002947450E+00 1.434416473E-01
 -4.000000000E+00 1.003291726E+00 1.580133289E-01
 -4.000000000E+00 1.003658652E+00 1.729402840E-01
 -4.000000000E+00 1.004049659E+00 1.881665885E-01
 -4.000000000E+00 1.004466295E+00 2.036322653E-01
 -4.000000000E+00 1.004910350E+00 2.192743570E-01
 -4.000000000E+00 1.005383611E+00 2.350279838E-01
 -4.000000000E+00 1.005887985E+00 2.508277595E-01
 -4.000000000E+00 1.006425500E+00 2.666087449E-01
 -4.000000000E+00 1.006998301E+00 2.823067904E-01
 -4.000000000E+00 1.007608771E+00 2.978576720E-01
 -4.000000000E+00 1.008259177E+00 3.131969273E-01
 -4.000000000E+00 1.008952498E+00 3.282615542E-01
 -4.000000000E+00 1.009691119E+00 3.429916799E-01
 -4.000000000E+00 1.010478377E+00 3.573324978E-01
 -4.000000000E+00 1.011317253E+00 3.712364435E-01
 -4.000000000E+00 1.012211084E+00 3.846653998E-01
 -4.000000000E+00 1.013163567E+00 3.975923955E-01
 -4.000000000E+00 1.014178634E+00 4.100028276E-01
 -4.000000000E+00 1.015260100E+00 4.218945205E-01
 -4.000000000E+00 1.016412497E+00 4.332774878E-01
 -4.000000000E+00 1.017640352E+00 4.441717863E-01
 -4.000000000E+00 1.018948674E+00 4.546054304E-01
 -4.000000000E+00 1.020342588E+00 4.646117091E-01
 -4.000000000E+00 1.021827817E+00 4.742266834E-01
 -4.000000000E+00 1.023410201E+00 4.834871292E-01
 -4.000000000E+00 1.025096059E+00 4.924289286E-01
 -4.000000000E+00 1.026892185E+00 5.010861754E-01
 -4.000000000E+00 1.028805614E+00 5.094901323E-01
 -4.000000000E+00 1.030843973E+00 5.176697373E-01
 -4.000000000E+00 1.033015370E+00 5.256507993E-01
 -4.000000000E+00 1.035328388E+00 5.334565639E-01
 -4.000000000E+00 1.037792325E+00 5.411078334E-01
 -4.000000000E+00 1.040416718E+00 5.486232042E-01
 -4.000000000E+00 1.043212056E+00 5.560191870E-01
 -4.000000000E+00 1.046189189E+00 5.633106232E-01
 -4.000000000E+00 1.049359918E+00 5.705108643E-01
 -4.000000000E+00 1.052736521E+00 5.776317716E-01
 -4.000000000E+00 1.056332350E+00 5.846841335E-01
 -4.000000000E+00 1.060161352E+00 5.916777849E-01
 -4.000000000E+00 1.064238310E+00 5.986217856E-01
 -4.000000000E+00 1.068579078E+00 6.055241227E-01
 -4.000000000E+00 1.073200345E+00 6.123923659E-01
 -4.000000000E+00 1.078119993E+00 6.192336679E-01
 -4.000000000E+00 1.083356857E+00 6.260544658E-01
 -4.000000000E+00 1.088930845E+00 6.328608990E-01
 -4.000000000E+00 1.094863057E+00 6.396586895E-01
 -4.000000000E+00 1.101176143E+00 6.464532614E-01
 -4.000000000E+00 1.107893705E+00 6.532499194E-01
 -4.000000000E+00 1.115041018E+00 6.600537896E-01
 -4.000000000E+00 1.122644544E+00 6.668695211E-01
 -4.000000000E+00 1.130732656E+00 6.737018824E-01
 -4.000000000E+00 1.139334917E+00 6.805553436E-01
 -4.000000000E+00 1.148482800E+00 6.874345541E-01
 -4.000000000E+00 1.158209562E+00 6.943437457E-01
 -4.000000000E+00 1.168550134E+00 7.012872696E-01
 -4.000000000E+00 1.179541588E+00 7.082694769E-01
 -4.000000000E+00 1.191222668E+00 7.152947783E-01
 -4.000000000E+00 1.203634501E+00 7.223671675E-01
 -4.000000000E+00 1.216820002E+00 7.294909954E-01
 -4.000000000E+00 1.230824709E+00 7.366706729E-01
 -4.000000000E+00 1.245695949E+00 7.439101934E-01
 -4.000000000E+00 1.261483788E+00 7.512140870E-01
 -4.000000000E+00 1.278240323E+00 7.585866451E-01
 -4.000000000E+00 1.296020389E+00 7.660323977E-01
 -4.000000000E+00 1.314881086E+00 7.735556364E-01
 -4.000000000E+00 1.334882140E+00 7.811609507E-01
 -4.000000000E+00 1.356085658E+00 7.888526917E-01
 -4.000000000E+00 1.378556371E+00 7.966350317E-01
 -4.000000000E+00 1.402361393E+00 8.045110703E-01
 -4.000000000E+00 1.427570581E+00 8.124834299E-01
 -4.000000000E+00 1.454256058E+00 8.205538392E-01
 -4.000000000E+00 1.482491970E+00 8.287233710E-01
 -4.000000000E+00 1.512355208E+00 8.369923830E-01
 -4.000000000E+00 1.543924451E+00 8.453601003E-01
 -4.000000000E+00 1.577280402E+00 8.538249731E-01
 -4.000000000E+00 1.612505317E+00 8.623841405E-01
 -4.000000000E+00 1.649683237E+00 8.710336685E-01
 -4.000000000E+00 1.688899159E+00 8.797680140E-01
 -4.000000000E+00 1.730238795E+00 8.885802031E-01
 -4.000000000E+00 1.773788691E+00 8.974615932E-01
 -4.000000000E+00 1.819635034E+00 9.064008594E-01
 -4.000000000E+00 1.867863655E+00 9.153837562E-01
 -4.000000000E+00 1.918559432E+00 9.243909121E-01
 -4.000000000E+00 1.971805573E+00 9.333968759E-01
 -4.000000000E+00 2.027683020E+00 9.423689246E-01
 -4.000000000E+00 2.086269379E+00 9.512635469E-01
 -4.000000000E+00 2.147638798E+00 9.600231051E-01
 -4.000000000E+00 2.211860657E+00 9.685711265E-01
 -4.000000000E+00 2.278998852E+00 9.768043756E-01
 -4.000000000E+00 2.349110603E+00 9.845815897E-01
 -4.000000000E+00 2.422245979E+00 9.916336536E-01
 -4.000000000E+00 2.498446703E+00 9.971371889E-01
 -4.000000000E+00 2.577744484E+00 9.999408722E-01
 -4.000000000E+00 2.660161495E+00 1.000516534E+00
 -4.000000000E+00 2.745707989E+00 1.000438333E+00
 -4.000000000E+00 2.834381342E+00 1.000324249E+00
 -4.000000000E+00 2.926166773E+00 1.000204444E+00
 -4.000000000E+00 3.021034241E+00 1.000079274E+00
 -4.000000000E+00 3.118939638E+00 9.999478459E-01
 -4.000000000E+00 3.219822168E+00 9.998103380E-01
 -4.000000000E+00 3.323605776E+00 9.996671081E-01
 -4.000000000E+00 3.430197716E+00 9.995182157E-01
 -4.000000000E+00 3.539488077E+00 9.993639588E-01
 -4.000000000E+00 3.651350260E+00 9.992046356E-01
 -4.000000000E+00 3.765640974E+00 9.990407825E-01
 -4.000000000E+00 3.882200718E+00 9.988726974E-01
 -4.000000000E+00 4.000854015E+00 9.987010956E-01
 -4.000000000E+00 4.121410370E+00 9.985265136E-01
 -4.000000000E+00 4.243665218E+00 9.983493686E-01
 -4.000000000E+00 4.367401600E+00 9.981704950E-01
 -4.000000000E+00 4.492391109E+00 9.979905486E-01
 -4.000000000E+00 4.618394852E+00 9.978101850E-01
 -4.000000000E+00 4.745166302E+00 9.976301789E-01
 -4.000000000E+00 4.872453690E+00 9.974511862E-01
 -4.000000000E+00 5.000000000E+00 9.972735643E-01
 -4.000000000E+00 5.127546310E+00 9.970985651E-01
 -4.000000000E+00 5.254833698E+00 9.969262481E-01
 -4.000000000E+00 5.381605148E+00 9.967574477E-01
 -4.000000000E+00 5.507608891E+00 9.965927005E-01
 -4.000000000E+00 5.632598400E+00 9.964322448E-01
 -4.000000000E+00 5.756334782E+00 9.962768555E-01
 -4.000000000E+00 5.878589630E+00 9.961267114E-01
 -4.000000000E+00 5.999145985E+00 9.959819913E-01
 -4.000000000E+00 6.117799282E+00 9.958431721E-01
 -4.000000000E+00 6.234358788E+00 9.957101941E-01
 -4.000000000E+00 6.348649502E+00 9.955832958E-01
 -4.000000000E+00 6.460511684E+00 9.954626560E-01
 -4.000000000E+00 6.569802284E+00 9.953483343E-01
 -4.000000000E+00 6.676393986E+00 9.952400327E-01
 -4.000000000E+00 6.780178070E+00 9.951378703E-01
 -4.000000000E+00 6.881060600E+00 9.950419068E-01
 -4.000000000E+00 6.978965759E+00 9.949517846E-01
 -4.000000000E+00 7.073832989E+00 9.948674440E-01
 -4.000000000E+00 7.165618420E+00 9.947897792E-01
 -4.000000000E+00 7.254292011E+00 9.947248697E-01
 -4.000000000E+00 7.339838505E+00 9.945658445E-01
 -4.000000000E+00 7.422255516E+00 9.934443235E-01
 -4.000000000E+00 7.501553535E+00 9.898852706E-01
 -4.000000000E+00 7.577754021E+00 9.838019609E-01
 -4.000000000E+00 7.650889397E+00 9.763738513E-01
 -4.000000000E+00 7.721001148E+00 9.682994485E-01
 -4.000000000E+00 7.788139343E+00 9.598069787E-01
 -4.000000000E+00 7.852361202E+00 9.510276318E-01
 -4.000000000E+00 7.913730621E+00 9.420583844E-01
 -4.000000000E+00 7.972317219E+00 9.329716563E-01
 -4.000000000E+00 8.028194427E+00 9.238214493E-01
 -4.000000000E+00 8.081440926E+00 9.146485925E-01
 -4.000000000E+00 8.132136345E+00 9.054841399E-01
 -4.000000000E+00 8.180364609E+00 8.963519335E-01
 -4.000000000E+00 8.226211548E+00 8.872695565E-01
 -4.000000000E+00 8.269761086E+00 8.782504201E-01
 -4.000000000E+00 8.311100960E+00 8.693048954E-01
 -4.000000000E+00 8.350317001E+00 8.604413271E-01
 -4.000000000E+00 8.387495041E+00 8.516659141E-01
 -4.000000000E+00 8.422719955E+00 8.429837823E-01
 -4.000000000E+00 8.456075668E+00 8.343982697E-01
 -4.000000000E+00 8.487645149E+00 8.259117603E-01
 -4.000000000E+00 8.517508507E+00 8.175255060E-01
 -4.000000000E+00 8.545743942E+00 8.092397451E-01
 -4.000000000E+00 8.572429657E+00 8.010538816E-01
 -4.000000000E+00 8.597638130E+00 7.929666042E-01
 -4.000000000E+00 8.621443748E+00 7.849757075E-01
 -4.000000000E+00 8.643914223E+00 7.770784497E-01
 -4.000000000E+00 8.665118217E+00 7.692711353E-01
 -4.000000000E+00 8.685118675E+00 7.615498304E-01
 -4.000000000E+00 8.703979492E+00 7.539101243E-01
 -4.000000000E+00 8.721759796E+00 7.463475466E-01
 -4.000000000E+00 8.738515854E+00 7.388579249E-01
 -4.000000000E+00 8.754303932E+00 7.314371467E-01
 -4.000000000E+00 8.769175529E+00 7.240812182E-01
 -4.000000000E+00 8.783180237E+00 7.167859674E-01
 -4.000000000E+00 8.796365738E+00 7.095476985E-01
 -4.000000000E+00 8.808777809E+00 7.023624182E-01
 -4.000000000E+00 8.820458412E+00 6.952264309E-01
 -4.000000000E+00 8.831449509E+00 6.881358624E-01
 -4.000000000E+00 8.841790199E+00 6.810870171E-01
 -4.000000000E+00 8.851517677E+00 6.740761399E-01
 -4.000000000E+00 8.860665321E+00 6.670992374E-01
 -4.000000000E+00 8.869267464E+00 6.601526737E-01
 -4.000000000E+00 8.877355576E+00 6.532323360E-01
 -4.000000000E+00 8.884959221E+00 6.463342905E-01
 -4.000000000E+00 8.892106056E+00 6.394542456E-01
 -4.000000000E+00 8.898823738E+00 6.325877905E-01
 -4.000000000E+00 8.905137062E+00 6.257306337E-01
 -4.000000000E+00 8.911068916E+00 6.188776493E-01
 -4.000000000E+00 8.916643143E+00 6.120241284E-01
 -4.000000000E+00 8.921879768E+00 6.051644087E-01
 -4.000000000E+00 8.926799774E+00 5.982928872E-01
 -4.000000000E+00 8.931421280E+00 5.914033055E-01
 -4.000000000E+00 8.935761452E+00 5.844891071E-01
 -4.000000000E+00 8.939838409E+00 5.775427818E-01
 -4.000000000E+00 8.943667412E+00 5.705566406E-01
 -4.000000000E+00 8.947263718E+00 5.635218024E-01
 -4.000000000E+00 8.950639725E+00 5.564287901E-01
 -4.000000000E+00 8.953810692E+00 5.492669344E-01
 -4.000000000E+00 8.956788063E+00 5.420246124E-01
 -4.000000000E+00 8.959583282E+00 5.346886516E-01
 -4.000000000E+00 8.962207794E+00 5.272445679E-01
 -4.000000000E+00 8.964671135E+00 5.196759105E-01
 -4.000000000E+00 8.966984749E+00 5.119644403E-01
 -4.000000000E+00 8.969156265E+00 5.040896535E-01
 -4.000000000E+00 8.971194267E+00 4.960285723E-01
 -4.000000000E+00 8.973108292E+00 4.877557755E-01
 -4.000000000E+00 8.974904060E+00 4.792429507E-01
 -4.000000000E+00 8.976590157E+00 4.704592228E-01
 -4.000000000E+00 8.978172302E+00 4.613711536E-01
 -4.000000000E+00 8.979657173E+00 4.519434571E-01
 -4.000000000E+00 8.981051445E+00 4.421402514E-01
 -4.000000000E+00 8.982359886E+00 4.319262207E-01
 -4.000000000E+00 8.983587265E+00 4.212688208E-01
 -4.000000000E+00 8.984740257E+00 4.101407826E-01
 -4.000000000E+00 8.985821724E+00 3.985226452E-01
 -4.000000000E+00 8.986836433E+00 3.864048421E-01
 -4.000000000E+00 8.987789154E+00 3.737894893E-01
 -4.000000000E+00 8.988682747E+00 3.606908321E-01
 -4.000000000E+00 8.989521980E+00 3.471350968E-01
 -4.000000000E+00 8.990308762E+00 3.331593573E-01
 -4.000000000E+00 8.991047859E+00 3.188096583E-01
 -4.000000000E+00 8.991741180E+00 3.041389585E-01
 -4.000000000E+00 8.992391586E+00 2.892053127E-01
 -4.000000000E+00 8.993001938E+00 2.740697563E-01
 -4.000000000E+00 8.993574142E+00 2.587945759E-01
 -4.000000000E+00 8.994112015E+00 2.434421778E-01
 -4.000000000E+00 8.994616508E+00 2.280746996E-01
 -4.000000000E+00 8.995089531E+00 2.127552480E-01
 -4.000000000E+00 8.995533943E+00 1.975475401E-01
 -4.000000000E+00 8.995950699E+00 1.825145930E-01
 -4.000000000E+00 8.996341705E+00 1.677177846E-01
 -4.000000000E+00 8.996707916E+00 1.532154232E-01
 -4.000000000E+00 8.997052193E+00 1.390619129E-01
 -4.000000000E+00 8.997375488E+00 1.253064573E-01
 -4.000000000E+00 8.997678757E+00 1.119923964E-01
 -4.000000000E+00 8.997962952E+00 9.915629029E-02
 -4.000000000E+00 8.998229980E+00 8.682751656E-02
 -4.000000000E+00 8.998479843E+00 7.502803952E-02
 -4.000000000E+00 8.998715401E+00 6.377241015E-02
 -4.000000000E+00 8.998935699E+00 5.306812748E-02
 -4.000000000E+00 8.999142647E+00 4.291618243E-02
 -4.000000000E+00 8.999336243E+00 3.331175447E-02
 -4.000000000E+00 8.999518394E+00 2.424505353E-02
 -4.000000000E+00 8.999689102E+00 1.570218056E-02
 -4.000000000E+00 8.999849319E+00 7.666008081E-03
 -4.000000000E+00 9.000000000E+00 3.771113465E-03
ZONE T="x/H=1"
 1.000000000E+00 0.000000000E+00 0.000000000E+00
 1.000000000E+00 1.500749349E-04 1.109329751E-04
 1.000000000E+00 3.087310179E-04 2.265737421E-04
 1.000000000E+00 4.765522899E-04 3.487859794E-04
 1.000000000E+00 6.541581242E-04 4.779924348E-04
 1.000000000E+00 8.422057144E-04 6.146367523E-04
 1.000000000E+00 1.041392214E-03 7.591844187E-04
 1.000000000E+00 1.252457150E-03 9.121226030E-04
 1.000000000E+00 1.476185862E-03 1.073960564E-03
 1.000000000E+00 1.713411068E-03 1.245229389E-03
 1.000000000E+00 1.965016825E-03 1.426481525E-03
 1.000000000E+00 2.231941791E-03 1.618290669E-03
 1.000000000E+00 2.515181201E-03 1.821249840E-03
 1.000000000E+00 2.815792104E-03 2.035970334E-03
 1.000000000E+00 3.134895815E-03 2.263078932E-03
 1.000000000E+00 3.473682096E-03 2.503216034E-03
 1.000000000E+00 3.833413823E-03 2.757030306E-03
 1.000000000E+00 4.215430468E-03 3.025175538E-03
 1.000000000E+00 4.621152766E-03 3.308304353E-03
 1.000000000E+00 5.052087829E-03 3.607060527E-03
 1.000000000E+00 5.509833805E-03 3.922071774E-03
 1.000000000E+00 5.996085238E-03 4.253940657E-03
 1.000000000E+00 6.512639113E-03 4.603230394E-03
 1.000000000E+00 7.061398588E-03 4.970455077E-03
 1.000000000E+00 7.644380908E-03 5.356062669E-03
 1.000000000E+00 8.263722993E-03 5.760419182E-03
 1.000000000E+00 8.921687491E-03 6.183790509E-03
 1.000000000E+00 9.620669298E-03 6.626321469E-03
 1.000000000E+00 1.036320440E-02 7.088016719E-03
 1.000000000E+00 1.115197316E-02 7.568711415E-03
 1.000000000E+00 1.198981050E-02 8.068057708E-03
 1.000000000E+00 1.287971530E-02 8.585494012E-03
 1.000000000E+00 1.382485218E-02 9.120220318E-03
 1.000000000E+00 1.482856460E-02 9.671182372E-03
 1.000000000E+00 1.589438133E-02 1.023704652E-02
 1.000000000E+00 1.702602394E-02 1.081617922E-02
 1.000000000E+00 1.822741330E-02 1.140662935E-02
 1.000000000E+00 1.950268447E-02 1.200612355E-02
 1.000000000E+00 2.085618302E-02 1.261204388E-02
 1.000000000E+00 2.229248732E-02 1.322141197E-02
 1.000000000E+00 2.381640300E-02 1.383088902E-02
 1.000000000E+00 2.543297783E-02 1.443674322E-02
 1.000000000E+00 2.714750916E-02 1.503486186E-02
 1.000000000E+00 2.896554396E-02 1.562074665E-02
 1.000000000E+00 3.089288995E-02 1.618952118E-02
 1.000000000E+00 3.293561935E-02 1.673596725E-02
 1.000000000E+00 3.510007635E-02 1.725455374E-02
 1.000000000E+00 3.739286959E-02 1.773951761E-02
 1.000000000E+00 3.982088342E-02 1.818495244E-02
 1.000000000E+00 4.239127785E-02 1.858492382E-02
 1.000000000E+00 4.511147365E-02 1.893360913E-02
 1.000000000E+00 4.798916727E-02 1.922546700E-02
 1.000000000E+00 5.103230849E-02 1.945539378E-02
 1.000000000E+00 5.424910039E-02 1.961886510E-02
 1.000000000E+00 5.764798820E-02 1.971206814E-02
 1.000000000E+00 6.123762950E-02 1.973194256E-02
 1.000000000E+00 6.502689421E-02 1.967621595E-02
 1.000000000E+00 6.902483106E-02 1.954330131E-02
 1.000000000E+00 7.324063778E-02 1.933218539E-02
 1.000000000E+00 7.768364996E-02 1.904222183E-02
 1.000000000E+00 8.236327022E-02 1.867295057E-02
 1.000000000E+00 8.728893846E-02 1.822386310E-02
 1.000000000E+00 9.247011691E-02 1.769423857E-02
 1.000000000E+00 9.791619331E-02 1.708296686E-02
 1.000000000E+00 1.036364213E-01 1.638840325E-02
 1.000000000E+00 1.096399054E-01 1.560815144E-02
 1.000000000E+00 1.159354597E-01 1.473899372E-02
 1.000000000E+00 1.225315928E-01 1.377700269E-02
 1.000000000E+00 1.294363886E-01 1.271776948E-02
 1.000000000E+00 1.366574168E-01 1.155663282E-02
 1.000000000E+00 1.442016512E-01 1.028889790E-02
 1.000000000E+00 1.520753801E-01 8.910078555E-03
 1.000000000E+00 1.602840871E-01 7.416123524E-03
 1.000000000E+00 1.688323319E-01 5.803652573E-03
 1.000000000E+00 1.777237058E-01 4.070182797E-03
 1.000000000E+00 1.869606376E-01 2.214357723E-03
 1.000000000E+00 1.965443641E-01 2.361804945E-04
 1.000000000E+00 2.064747959E-01 -1.862764126E-03
 1.000000000E+00 2.167504281E-01 -4.079083912E-03
 1.000000000E+00 2.273682207E-01 -6.407372653E-03
 1.000000000E+00 2.383235991E-01 -8.840021677E-03
 1.000000000E+00 2.496102750E-01 -1.136706118E-02
 1.000000000E+00 2.612203062E-01 -1.397605613E-02
 1.000000000E+00 2.731439471E-01 -1.665204950E-02
 1.000000000E+00 2.853696942E-01 -1.937759854E-02
 1.000000000E+00 2.978843451E-01 -2.213284001E-02
 1.000000000E+00 3.106728196E-01 -2.489565872E-02
 1.000000000E+00 3.237183690E-01 -2.764195763E-02
 1.000000000E+00 3.370026648E-01 -3.034605272E-02
 1.000000000E+00 3.505057096E-01 -3.298120946E-02
 1.000000000E+00 3.642061055E-01 -3.552021459E-02
 1.000000000E+00 3.780810535E-01 -3.793608025E-02
 1.000000000E+00 3.921067119E-01 -4.020270705E-02
 1.000000000E+00 4.062580764E-01 -4.229563475E-02
 1.000000000E+00 4.205094278E-01 -4.419277981E-02
 1.000000000E+00 4.348344207E-01 -4.587518796E-02
 1.000000000E+00 4.492062032E-01 -4.732774198E-02
 1.000000000E+00 4.635978639E-01 -4.853972420E-02
 1.000000000E+00 4.779824615E-01 -4.950519651E-02
 1.000000000E+00 4.923332930E-01 -5.022319406E-02
 1.000000000E+00 5.066241622E-01 -5.069766194E-02
 1.000000000E+00 5.208296180E-01 -5.093720928E-02
 1.000000000E+00 5.349249244E-01 -5.095458403E-02
 1.000000000E+00 5.488865972E-01 -5.076612532E-02
 1.000000000E+00 5.626922846E-01 -5.039101094E-02
 1.000000000E+00 5.763211846E-01 -4.985043406E-02
 1.000000000E+00 5.897538066E-01 -4.916685447E-02
 1.000000000E+00 6.029724479E-01 -4.836315289E-02
 1.000000000E+00 6.159611940E-01 -4.746187106E-02
 1.000000000E+00 6.287056804E-01 -4.648448899E-02
 1.000000000E+00 6.411936283E-01 -4.545076936E-02
 1.000000000E+00 6.534144878E-01 -4.437816516E-02
 1.000000000E+00 6.653595567E-01 -4.328127205E-02
 1.000000000E+00 6.770219207E-01 -4.217127711E-02
 1.000000000E+00 6.883966327E-01 -4.105536267E-02
 1.000000000E+00 6.994803548E-01 -3.993597627E-02
 1.000000000E+00 7.102713585E-01 -3.880979493E-02
 1.000000000E+00 7.207696438E-01 -3.766613454E-02
 1.000000000E+00 7.309766412E-01 -3.648452088E-02
 1.000000000E+00 7.408953309E-01 -3.523072600E-02
 1.000000000E+00 7.505297661E-01 -3.385047615E-02
 1.000000000E+00 7.598854303E-01 -3.226004541E-02
 1.000000000E+00 7.689688206E-01 -3.033404797E-02
 1.000000000E+00 7.777875066E-01 -2.789589763E-02
 1.000000000E+00 7.863498926E-01 -2.472585253E-02
 1.000000000E+00 7.946652770E-01 -2.060597949E-02
 1.000000000E+00 8.027436137E-01 -1.539569069E-02
 1.000000000E+00 8.105954528E-01 -9.084658697E-03
 1.000000000E+00 8.182319403E-01 -1.791127492E-03
 1.000000000E+00 8.256042004E-01 6.287071854E-03
 1.000000000E+00 8.326897025E-01 1.495270245E-02
 1.000000000E+00 8.394981027E-01 2.405687794E-02
 1.000000000E+00 8.460389972E-01 3.349112719E-02
 1.000000000E+00 8.523222208E-01 4.317115620E-02
 1.000000000E+00 8.583575487E-01 5.302935466E-02
 1.000000000E+00 8.641546965E-01 6.300999224E-02
 1.000000000E+00 8.697232008E-01 7.306621969E-02
 1.000000000E+00 8.750725389E-01 8.315815032E-02
 1.000000000E+00 8.802121878E-01 9.325166047E-02
 1.000000000E+00 8.851511478E-01 1.033174396E-01
 1.000000000E+00 8.898984194E-01 1.133304238E-01
 1.000000000E+00 8.944627047E-01 1.232692525E-01
 1.000000000E+00 8.988524675E-01 1.331158578E-01
 1.000000000E+00 9.030758739E-01 1.428550929E-01
 1.000000000E+00 9.071409106E-01 1.524745077E-01
 1.000000000E+00 9.110552073E-01 1.619639695E-01
 1.000000000E+00 9.148262739E-01 1.713154316E-01
 1.000000000E+00 9.184611440E-01 1.805227846E-01
 1.000000000E+00 9.219666123E-01 1.895814836E-01
 1.000000000E+00 9.253494143E-01 1.984885484E-01
 1.000000000E+00 9.286156893E-01 2.072422355E-01
 1.000000000E+00 9.317715764E-01 2.158419341E-01
 1.000000000E+00 9.348228574E-01 2.242880166E-01
 1.000000000E+00 9.377749562E-01 2.325816602E-01
 1.000000000E+00 9.406331778E-01 2.407248318E-01
 1.000000000E+00 9.434025884E-01 2.487200499E-01
 1.000000000E+00 9.460878968E-01 2.565703690E-01
 1.000000000E+00 9.486937523E-01 2.642792761E-01
 1.000000000E+00 9.512243867E-01 2.718505859E-01
 1.000000000E+00 9.536840320E-01 2.792883515E-01
 1.000000000E+00 9.560765624E-01 2.865968943E-01
 1.000000000E+00 9.584057331E-01 2.937806547E-01
 1.000000000E+00 9.606750607E-01 3.008441925E-01
 1.000000000E+00 9.628879428E-01 3.077921271E-01
 1.000000000E+00 9.650474787E-01 3.146291077E-01
 1.000000000E+00 9.671568274E-01 3.213598132E-01
 1.000000000E+00 9.692187309E-01 3.279888928E-01
 1.000000000E+00 9.712360501E-01 3.345208764E-01
 1.000000000E+00 9.732112885E-01 3.409602940E-01
 1.000000000E+00 9.751468897E-01 3.473115861E-01
 1.000000000E+00 9.770451784E-01 3.535791039E-01
 1.000000000E+00 9.789084196E-01 3.597670496E-01
 1.000000000E+00 9.807386398E-01 3.658795655E-01
 1.000000000E+00 9.825378060E-01 3.719206452E-01
 1.000000000E+00 9.843078852E-01 3.778941035E-01
 1.000000000E+00 9.860506058E-01 3.838036954E-01
 1.000000000E+00 9.877676368E-01 3.896531165E-01
 1.000000000E+00 9.894605279E-01 3.954457045E-01
 1.000000000E+00 9.911309481E-01 4.011848569E-01
 1.000000000E+00 9.927802086E-01 4.068737626E-01
 1.000000000E+00 9.944097996E-01 4.125154316E-01
 1.000000000E+00 9.960208535E-01 4.181128144E-01
 1.000000000E+00 9.976147413E-01 4.236687124E-01
 1.000000000E+00 9.991925955E-01 4.291858077E-01
 1.000000000E+00 1.000755548E+00 4.346665144E-01
 1.000000000E+00 1.002304673E+00 4.401133060E-01
 1.000000000E+00 1.003840923E+00 4.455284774E-01
 1.000000000E+00 1.005365252E+00 4.509141445E-01
 1.000000000E+00 1.006878734E+00 4.562722147E-01
 1.000000000E+00 1.008381963E+00 4.616047144E-01
 1.000000000E+00 1.009876132E+00 4.669134021E-01
 1.000000000E+00 1.011361718E+00 4.721998274E-01
 1.000000000E+00 1.012839675E+00 4.774729013E-01
 1.000000000E+00 1.014318705E+00 4.827554524E-01
 1.000000000E+00 1.015807629E+00 4.880706072E-01
 1.000000000E+00 1.017307401E+00 4.934274256E-01
 1.000000000E+00 1.018818736E+00 4.988272786E-01
 1.000000000E+00 1.020342350E+00 5.042719245E-01
 1.000000000E+00 1.021879435E+00 5.097627640E-01
 1.000000000E+00 1.023430705E+00 5.153016448E-01
 1.000000000E+00 1.024997234E+00 5.208898783E-01
 1.000000000E+00 1.026580215E+00 5.265288949E-01
 1.000000000E+00 1.028180480E+00 5.322200060E-01
 1.000000000E+00 1.029799461E+00 5.379642844E-01
 1.000000000E+00 1.031438231E+00 5.437626839E-01
 1.000000000E+00 1.033098221E+00 5.496156812E-01
 1.000000000E+00 1.034780741E+00 5.555235744E-01
 1.000000000E+00 1.036487222E+00 5.614857674E-01
 1.000000000E+00 1.038219213E+00 5.675013065E-01
 1.000000000E+00 1.039978385E+00 5.735682249E-01
 1.000000000E+00 1.041766405E+00 5.796833634E-01
 1.000000000E+00 1.043585062E+00 5.858423710E-01
 1.000000000E+00 1.045436382E+00 5.920386314E-01
 1.000000000E+00 1.047322392E+00 5.982637405E-01
 1.000000000E+00 1.049245119E+00 6.045058966E-01
 1.000000000E+00 1.051206946E+00 6.107499003E-01
 1.000000000E+00 1.053210378E+00 6.169762015E-01
 1.000000000E+00 1.055257797E+00 6.231598258E-01
 1.000000000E+00 1.057352066E+00 6.292701364E-01
 1.000000000E+00 1.059496045E+00 6.352701783E-01
 1.000000000E+00 1.061692715E+00 6.411173344E-01
 1.000000000E+00 1.063945413E+00 6.467657685E-01
 1.000000000E+00 1.066257596E+00 6.521698833E-01
 1.000000000E+00 1.068632841E+00 6.572903395E-01
 1.000000000E+00 1.071074963E+00 6.620995402E-01
 1.000000000E+00 1.073588252E+00 6.665865779E-01
 1.000000000E+00 1.076176882E+00 6.707584858E-01
 1.000000000E+00 1.078845739E+00 6.746382117E-01
 1.000000000E+00 1.081599474E+00 6.782600880E-01
 1.000000000E+00 1.084443450E+00 6.816640496E-01
 1.000000000E+00 1.087383270E+00 6.848912835E-01
 1.000000000E+00 1.090424657E+00 6.879810095E-01
 1.000000000E+00 1.093573928E+00 6.909686923E-01
 1.000000000E+00 1.096837759E+00 6.938852072E-01
 1.000000000E+00 1.100223184E+00 6.967568994E-01
 1.000000000E+00 1.103737593E+00 6.996061206E-01
 1.000000000E+00 1.107388973E+00 7.024516463E-01
 1.000000000E+00 1.111185789E+00 7.053089738E-01
 1.000000000E+00 1.115136862E+00 7.081906796E-01
 1.000000000E+00 1.119251847E+00 7.111075521E-01
 1.000000000E+00 1.123540759E+00 7.140681744E-01
 1.000000000E+00 1.128014207E+00 7.170796394E-01
 1.000000000E+00 1.132683516E+00 7.201473713E-01
 1.000000000E+00 1.137560844E+00 7.232758403E-01
 1.000000000E+00 1.142658949E+00 7.264685035E-01
 1.000000000E+00 1.147991180E+00 7.297281623E-01
 1.000000000E+00 1.153571963E+00 7.330566645E-01
 1.000000000E+00 1.159416676E+00 7.364557981E-01
 1.000000000E+00 1.165541291E+00 7.399267554E-01
 1.000000000E+00 1.171962857E+00 7.434705496E-01
 1.000000000E+00 1.178699493E+00 7.470881343E-01
 1.000000000E+00 1.185770392E+00 7.507807612E-01
 1.000000000E+00 1.193195820E+00 7.545493841E-01
 1.000000000E+00 1.200997233E+00 7.583954334E-01
 1.000000000E+00 1.209197283E+00 7.623203397E-01
 1.000000000E+00 1.217820168E+00 7.663258910E-01
 1.000000000E+00 1.226891041E+00 7.704150081E-01
 1.000000000E+00 1.236445308E+00 7.745990157E-01
 1.000000000E+00 1.246588945E+00 7.788965106E-01
 1.000000000E+00 1.257356644E+00 7.833172679E-01
 1.000000000E+00 1.268784761E+00 7.878622413E-01
 1.000000000E+00 1.280911565E+00 7.925320864E-01
 1.000000000E+00 1.293777347E+00 7.973274589E-01
 1.000000000E+00 1.307424188E+00 8.022491336E-01
 1.000000000E+00 1.321896553E+00 8.072977066E-01
 1.000000000E+00 1.337240696E+00 8.124735951E-01
 1.000000000E+00 1.353505373E+00 8.177773952E-01
 1.000000000E+00 1.370741010E+00 8.232092261E-01
 1.000000000E+00 1.389000773E+00 8.287695050E-01
 1.000000000E+00 1.408339858E+00 8.344578147E-01
 1.000000000E+00 1.428815722E+00 8.402740955E-01
 1.000000000E+00 1.450488210E+00 8.462178111E-01
 1.000000000E+00 1.473419428E+00 8.522876501E-01
 1.000000000E+00 1.497673512E+00 8.584824800E-01
 1.000000000E+00 1.523316979E+00 8.648002744E-01
 1.000000000E+00 1.550418496E+00 8.712387681E-01
 1.000000000E+00 1.579048634E+00 8.777950406E-01
 1.000000000E+00 1.609279990E+00 8.844653964E-01
 1.000000000E+00 1.641186953E+00 8.912454844E-01
 1.000000000E+00 1.674845338E+00 8.981302381E-01
 1.000000000E+00 1.710332632E+00 9.051133394E-01
 1.000000000E+00 1.747727394E+00 9.121877551E-01
 1.000000000E+00 1.787108898E+00 9.193443656E-01
 1.000000000E+00 1.828557253E+00 9.265726805E-01
 1.000000000E+00 1.872152448E+00 9.338594675E-01
 1.000000000E+00 1.917974591E+00 9.411883950E-01
 1.000000000E+00 1.966102839E+00 9.485394955E-01
 1.000000000E+00 2.016615391E+00 9.558882713E-01
 1.000000000E+00 2.069588423E+00 9.632065296E-01
 1.000000000E+00 2.125096083E+00 9.704610109E-01
 1.000000000E+00 2.183209419E+00 9.776095152E-01
 1.000000000E+00 2.243995428E+00 9.845836163E-01
 1.000000000E+00 2.307517290E+00 9.912501574E-01
 1.000000000E+00 2.373832703E+00 9.973526001E-01
 1.000000000E+00 2.442992687E+00 1.002475619E+00
 1.000000000E+00 2.515042067E+00 1.006121993E+00
 1.000000000E+00 2.590017557E+00 1.007969737E+00
 1.000000000E+00 2.667947292E+00 1.008186340E+00
 1.000000000E+00 2.748849630E+00 1.007459521E+00
 1.000000000E+00 2.832732677E+00 1.006547451E+00
 1.000000000E+00 2.919592857E+00 1.005748034E+00
 1.000000000E+00 3.009414673E+00 1.004984975E+00
 1.000000000E+00 3.102169275E+00 1.004207611E+00
 1.000000000E+00 3.197814703E+00 1.003428817E+00
 1.000000000E+00 3.296294689E+00 1.002649188E+00
 1.000000000E+00 3.397537470E+00 1.001871228E+00
 1.000000000E+00 3.501456976E+00 1.001096964E+00
 1.000000000E+00 3.607951164E+00 1.000329137E+00
 1.000000000E+00 3.716902971E+00 9.995693564E-01
 1.000000000E+00 3.828179598E+00 9.988198876E-01
 1.000000000E+00 3.941633224E+00 9.980828762E-01
 1.000000000E+00 4.057101250E+00 9.973598719E-01
 1.000000000E+00 4.174407482E+00 9.966527224E-01
 1.000000000E+00 4.293362617E+00 9.959630966E-01
 1.000000000E+00 4.413764000E+00 9.952919483E-01
 1.000000000E+00 4.535399437E+00 9.946407080E-01
 1.000000000E+00 4.658046722E+00 9.940105677E-01
 1.000000000E+00 4.781475544E+00 9.934021831E-01
 1.000000000E+00 4.905449390E+00 9.928161502E-01
 1.000000000E+00 5.029727459E+00 9.922531247E-01
 1.000000000E+00 5.154065132E+00 9.917135239E-01
 1.000000000E+00 5.278218746E+00 9.911972284E-01
 1.000000000E+00 5.401944160E+00 9.907045960E-01
 1.000000000E+00 5.525001526E+00 9.902353883E-01
 1.000000000E+00 5.647155285E+00 9.897894859E-01
 1.000000000E+00 5.768176556E+00 9.893664718E-01
 1.000000000E+00 5.887844563E+00 9.889661670E-01
 1.000000000E+00 6.005949974E+00 9.885878563E-01
 1.000000000E+00 6.122292519E+00 9.882310033E-01
 1.000000000E+00 6.236685753E+00 9.878948927E-01
 1.000000000E+00 6.348957539E+00 9.875789881E-01
 1.000000000E+00 6.458948612E+00 9.872826934E-01
 1.000000000E+00 6.566515446E+00 9.870052338E-01
 1.000000000E+00 6.671530724E+00 9.867451191E-01
 1.000000000E+00 6.773881435E+00 9.864993095E-01
 1.000000000E+00 6.873472214E+00 9.862676859E-01
 1.000000000E+00 6.970221519E+00 9.860647917E-01
 1.000000000E+00 7.064064980E+00 9.859251976E-01
 1.000000000E+00 7.154951572E+00 9.858270288E-01
 1.000000000E+00 7.242846489E+00 9.854660034E-01
 1.000000000E+00 7.327727318E+00 9.840459228E-01
 1.000000000E+00 7.409585476E+00 9.805884361E-01
 1.000000000E+00 7.488424301E+00 9.748215675E-01
 1.000000000E+00 7.564259052E+00 9.674847722E-01
 1.000000000E+00 7.637114048E+00 9.594173431E-01