# Velocity results from CFL3D, Re_H=36,000, SST-V model
# Note: computed results were quasi-steady
VARIABLES = "x/H","y/H","u/Uref"
ZONE T="x/H=-4"
 -4.000000000E+00 1.000000000E+00 3.987884615E-03
 -4.000000000E+00 1.000150442E+00 8.103379980E-03
 -4.000000000E+00 1.000310659E+00 1.660699025E-02
 -4.000000000E+00 1.000481486E+00 2.566804364E-02
 -4.000000000E+00 1.000663638E+00 3.532284871E-02
 -4.000000000E+00 1.000857592E+00 4.560990632E-02
 -4.000000000E+00 1.001064420E+00 5.656966940E-02
 -4.000000000E+00 1.001284838E+00 6.824403256E-02
 -4.000000000E+00 1.001519799E+00 8.067490160E-02
 -4.000000000E+00 1.001770139E+00 9.390147030E-02
 -4.000000000E+00 1.002037048E+00 1.079553813E-01
 -4.000000000E+00 1.002321362E+00 1.228527203E-01
 -4.000000000E+00 1.002624512E+00 1.385825574E-01
 -4.000000000E+00 1.002947450E+00 1.550931633E-01
 -4.000000000E+00 1.003291726E+00 1.722793281E-01
 -4.000000000E+00 1.003658652E+00 1.899776310E-01
 -4.000000000E+00 1.004049659E+00 2.079755217E-01
 -4.000000000E+00 1.004466295E+00 2.260358632E-01
 -4.000000000E+00 1.004910350E+00 2.439290732E-01
 -4.000000000E+00 1.005383611E+00 2.614616752E-01
 -4.000000000E+00 1.005887985E+00 2.784921229E-01
 -4.000000000E+00 1.006425500E+00 2.949325144E-01
 -4.000000000E+00 1.006998301E+00 3.107598126E-01
 -4.000000000E+00 1.007608771E+00 3.259996474E-01
 -4.000000000E+00 1.008259177E+00 3.406713307E-01
 -4.000000000E+00 1.008952498E+00 3.547768891E-01
 -4.000000000E+00 1.009691119E+00 3.683221638E-01
 -4.000000000E+00 1.010478377E+00 3.813210726E-01
 -4.000000000E+00 1.011317253E+00 3.937940001E-01
 -4.000000000E+00 1.012211084E+00 4.057660401E-01
 -4.000000000E+00 1.013163567E+00 4.172648191E-01
 -4.000000000E+00 1.014178634E+00 4.283201993E-01
 -4.000000000E+00 1.015260100E+00 4.389663637E-01
 -4.000000000E+00 1.016412497E+00 4.492481351E-01
 -4.000000000E+00 1.017640352E+00 4.592135251E-01
 -4.000000000E+00 1.018948674E+00 4.688965380E-01
 -4.000000000E+00 1.020342588E+00 4.783202112E-01
 -4.000000000E+00 1.021827817E+00 4.875051081E-01
 -4.000000000E+00 1.023410201E+00 4.964697659E-01
 -4.000000000E+00 1.025096059E+00 5.052314997E-01
 -4.000000000E+00 1.026892185E+00 5.138056278E-01
 -4.000000000E+00 1.028805614E+00 5.222066045E-01
 -4.000000000E+00 1.030843973E+00 5.304473639E-01
 -4.000000000E+00 1.033015370E+00 5.385399461E-01
 -4.000000000E+00 1.035328388E+00 5.464951396E-01
 -4.000000000E+00 1.037792325E+00 5.543232560E-01
 -4.000000000E+00 1.040416718E+00 5.620333552E-01
 -4.000000000E+00 1.043212056E+00 5.696341991E-01
 -4.000000000E+00 1.046189189E+00 5.771335959E-01
 -4.000000000E+00 1.049359918E+00 5.845389366E-01
 -4.000000000E+00 1.052736521E+00 5.918570757E-01
 -4.000000000E+00 1.056332350E+00 5.990942121E-01
 -4.000000000E+00 1.060161352E+00 6.062563658E-01
 -4.000000000E+00 1.064238310E+00 6.133490801E-01
 -4.000000000E+00 1.068579078E+00 6.203776002E-01
 -4.000000000E+00 1.073200345E+00 6.273468137E-01
 -4.000000000E+00 1.078119993E+00 6.342614293E-01
 -4.000000000E+00 1.083356857E+00 6.411256194E-01
 -4.000000000E+00 1.088930845E+00 6.479438543E-01
 -4.000000000E+00 1.094863057E+00 6.547198296E-01
 -4.000000000E+00 1.101176143E+00 6.614575982E-01
 -4.000000000E+00 1.107893705E+00 6.681608558E-01
 -4.000000000E+00 1.115041018E+00 6.748329997E-01
 -4.000000000E+00 1.122644544E+00 6.814776659E-01
 -4.000000000E+00 1.130732656E+00 6.880980730E-01
 -4.000000000E+00 1.139334917E+00 6.946977377E-01
 -4.000000000E+00 1.148482800E+00 7.012797594E-01
 -4.000000000E+00 1.158209562E+00 7.078475356E-01
 -4.000000000E+00 1.168550134E+00 7.144043446E-01
 -4.000000000E+00 1.179541588E+00 7.209534645E-01
 -4.000000000E+00 1.191222668E+00 7.274982929E-01
 -4.000000000E+00 1.203634501E+00 7.340421677E-01
 -4.000000000E+00 1.216820002E+00 7.405887246E-01
 -4.000000000E+00 1.230824709E+00 7.471415401E-01
 -4.000000000E+00 1.245695949E+00 7.537044883E-01
 -4.000000000E+00 1.261483788E+00 7.602815628E-01
 -4.000000000E+00 1.278240323E+00 7.668771744E-01
 -4.000000000E+00 1.296020389E+00 7.734958529E-01
 -4.000000000E+00 1.314881086E+00 7.801425457E-01
 -4.000000000E+00 1.334882140E+00 7.868226171E-01
 -4.000000000E+00 1.356085658E+00 7.935419679E-01
 -4.000000000E+00 1.378556371E+00 8.003070354E-01
 -4.000000000E+00 1.402361393E+00 8.071248531E-01
 -4.000000000E+00 1.427570581E+00 8.140035868E-01
 -4.000000000E+00 1.454256058E+00 8.209528327E-01
 -4.000000000E+00 1.482491970E+00 8.279902339E-01
 -4.000000000E+00 1.512355208E+00 8.351424336E-01
 -4.000000000E+00 1.543924451E+00 8.424335718E-01
 -4.000000000E+00 1.577280402E+00 8.498807549E-01
 -4.000000000E+00 1.612505317E+00 8.574992418E-01
 -4.000000000E+00 1.649683237E+00 8.653064966E-01
 -4.000000000E+00 1.688899159E+00 8.733252883E-01
 -4.000000000E+00 1.730238795E+00 8.815865517E-01
 -4.000000000E+00 1.773788691E+00 8.901308179E-01
 -4.000000000E+00 1.819635034E+00 8.990061283E-01
 -4.000000000E+00 1.867863655E+00 9.082604051E-01
 -4.000000000E+00 1.918559432E+00 9.179239273E-01
 -4.000000000E+00 1.971805573E+00 9.279760718E-01
 -4.000000000E+00 2.027683020E+00 9.382985234E-01
 -4.000000000E+00 2.086269379E+00 9.486317039E-01
 -4.000000000E+00 2.147638798E+00 9.586217999E-01
 -4.000000000E+00 2.211860657E+00 9.681466818E-01
 -4.000000000E+00 2.278998852E+00 9.774314165E-01
 -4.000000000E+00 2.349110603E+00 9.865471125E-01
 -4.000000000E+00 2.422245979E+00 9.945049882E-01
 -4.000000000E+00 2.498446703E+00 9.989988804E-01
 -4.000000000E+00 2.577744484E+00 1.000013590E+00
 -4.000000000E+00 2.660161495E+00 9.999487400E-01
 -4.000000000E+00 2.745707989E+00 9.998409152E-01
 -4.000000000E+00 2.834381342E+00 9.997259974E-01
 -4.000000000E+00 2.926166773E+00 9.996057749E-01
 -4.000000000E+00 3.021034241E+00 9.994789958E-01
 -4.000000000E+00 3.118939638E+00 9.993457794E-01
 -4.000000000E+00 3.219822168E+00 9.992062449E-01
 -4.000000000E+00 3.323605776E+00 9.990606904E-01
 -4.000000000E+00 3.430197716E+00 9.989092350E-01
 -4.000000000E+00 3.539488077E+00 9.987521172E-01
 -4.000000000E+00 3.651350260E+00 9.985899925E-01
 -4.000000000E+00 3.765640974E+00 9.984231591E-01
 -4.000000000E+00 3.882200718E+00 9.982520342E-01
 -4.000000000E+00 4.000854015E+00 9.980773330E-01
 -4.000000000E+00 4.121410370E+00 9.978994727E-01
 -4.000000000E+00 4.243665218E+00 9.977193475E-01
 -4.000000000E+00 4.367401600E+00 9.975374937E-01
 -4.000000000E+00 4.492391109E+00 9.973545671E-01
 -4.000000000E+00 4.618394852E+00 9.971714020E-01
 -4.000000000E+00 4.745166302E+00 9.969884753E-01
 -4.000000000E+00 4.872453690E+00 9.968067408E-01
 -4.000000000E+00 5.000000000E+00 9.966266751E-01
 -4.000000000E+00 5.127546310E+00 9.964492321E-01
 -4.000000000E+00 5.254833698E+00 9.962746501E-01
 -4.000000000E+00 5.381605148E+00 9.961038828E-01
 -4.000000000E+00 5.507608891E+00 9.959370494E-01
 -4.000000000E+00 5.632598400E+00 9.957749248E-01
 -4.000000000E+00 5.756334782E+00 9.956177473E-01
 -4.000000000E+00 5.878589630E+00 9.954659343E-01
 -4.000000000E+00 5.999145985E+00 9.953197241E-01
 -4.000000000E+00 6.117799282E+00 9.951794744E-01
 -4.000000000E+00 6.234358788E+00 9.950454235E-01
 -4.000000000E+00 6.348649502E+00 9.949172139E-01
 -4.000000000E+00 6.460511684E+00 9.947955012E-01
 -4.000000000E+00 6.569802284E+00 9.946798086E-01
 -4.000000000E+00 6.676393986E+00 9.945703745E-01
 -4.000000000E+00 6.780178070E+00 9.944670796E-01
 -4.000000000E+00 6.881060600E+00 9.943696260E-01
 -4.000000000E+00 6.978965759E+00 9.942781329E-01
 -4.000000000E+00 7.073832989E+00 9.941921830E-01
 -4.000000000E+00 7.165618420E+00 9.941117764E-01
 -4.000000000E+00 7.254292011E+00 9.940389991E-01
 -4.000000000E+00 7.339838505E+00 9.939864874E-01
 -4.000000000E+00 7.422255516E+00 9.937829375E-01
 -4.000000000E+00 7.501553535E+00 9.919900894E-01
 -4.000000000E+00 7.577754021E+00 9.865210056E-01
 -4.000000000E+00 7.650889397E+00 9.780037403E-01
 -4.000000000E+00 7.721001148E+00 9.686159492E-01
 -4.000000000E+00 7.788139343E+00 9.590950608E-01
 -4.000000000E+00 7.852361202E+00 9.492967725E-01
 -4.000000000E+00 7.913730621E+00 9.390366673E-01
 -4.000000000E+00 7.972317219E+00 9.284899235E-01
 -4.000000000E+00 8.028194427E+00 9.180154204E-01
 -4.000000000E+00 8.081440926E+00 9.078556895E-01
 -4.000000000E+00 8.132136345E+00 8.981091380E-01
 -4.000000000E+00 8.180364609E+00 8.887808919E-01
 -4.000000000E+00 8.226211548E+00 8.798327446E-01
 -4.000000000E+00 8.269761086E+00 8.712130785E-01
 -4.000000000E+00 8.311100960E+00 8.628730774E-01
 -4.000000000E+00 8.350317001E+00 8.547726870E-01
 -4.000000000E+00 8.387495041E+00 8.468813896E-01
 -4.000000000E+00 8.422719955E+00 8.391764164E-01
 -4.000000000E+00 8.456075668E+00 8.316399455E-01
 -4.000000000E+00 8.487645149E+00 8.242561221E-01
 -4.000000000E+00 8.517508507E+00 8.170077801E-01
 -4.000000000E+00 8.545743942E+00 8.098729253E-01
 -4.000000000E+00 8.572429657E+00 8.028270006E-01
 -4.000000000E+00 8.597638130E+00 7.958512902E-01
 -4.000000000E+00 8.621443748E+00 7.889351249E-01
 -4.000000000E+00 8.643914223E+00 7.820706367E-01
 -4.000000000E+00 8.665118217E+00 7.752507329E-01
 -4.000000000E+00 8.685118675E+00 7.684695125E-01
 -4.000000000E+00 8.703979492E+00 7.617209554E-01
 -4.000000000E+00 8.721759796E+00 7.549999356E-01
 -4.000000000E+00 8.738515854E+00 7.483018637E-01
 -4.000000000E+00 8.754303932E+00 7.416223884E-01
 -4.000000000E+00 8.769175529E+00 7.349573374E-01
 -4.000000000E+00 8.783180237E+00 7.283028960E-01
 -4.000000000E+00 8.796365738E+00 7.216556668E-01
 -4.000000000E+00 8.808777809E+00 7.150122523E-01
 -4.000000000E+00 8.820458412E+00 7.083693147E-01
 -4.000000000E+00 8.831449509E+00 7.017238736E-01
 -4.000000000E+00 8.841790199E+00 6.950727701E-01
 -4.000000000E+00 8.851517677E+00 6.884132028E-01
 -4.000000000E+00 8.860665321E+00 6.817421317E-01
 -4.000000000E+00 8.869267464E+00 6.750566959E-01
 -4.000000000E+00 8.877355576E+00 6.683539152E-01
 -4.000000000E+00 8.884959221E+00 6.616308689E-01
 -4.000000000E+00 8.892106056E+00 6.548843980E-01
 -4.000000000E+00 8.898823738E+00 6.481114626E-01
 -4.000000000E+00 8.905137062E+00 6.413089037E-01
 -4.000000000E+00 8.911068916E+00 6.344730854E-01
 -4.000000000E+00 8.916643143E+00 6.276007891E-01
 -4.000000000E+00 8.921879768E+00 6.206881404E-01
 -4.000000000E+00 8.926799774E+00 6.137312651E-01
 -4.000000000E+00 8.931421280E+00 6.067261100E-01
 -4.000000000E+00 8.935761452E+00 5.996680856E-01
 -4.000000000E+00 8.939838409E+00 5.925527811E-01
 -4.000000000E+00 8.943667412E+00 5.853749514E-01
 -4.000000000E+00 8.947263718E+00 5.781294107E-01
 -4.000000000E+00 8.950639725E+00 5.708103776E-01
 -4.000000000E+00 8.953810692E+00 5.634115934E-01
 -4.000000000E+00 8.956788063E+00 5.559264421E-01
 -4.000000000E+00 8.959583282E+00 5.483475924E-01
 -4.000000000E+00 8.962207794E+00 5.406674743E-01
 -4.000000000E+00 8.964671135E+00 5.328775048E-01
 -4.000000000E+00 8.966984749E+00 5.249683261E-01
 -4.000000000E+00 8.969156265E+00 5.169302821E-01
 -4.000000000E+00 8.971194267E+00 5.087522864E-01
 -4.000000000E+00 8.973108292E+00 5.004224181E-01
 -4.000000000E+00 8.974904060E+00 4.919278324E-01
 -4.000000000E+00 8.976590157E+00 4.832544029E-01
 -4.000000000E+00 8.978172302E+00 4.743864536E-01
 -4.000000000E+00 8.979657173E+00 4.653070867E-01
 -4.000000000E+00 8.981051445E+00 4.559977949E-01
 -4.000000000E+00 8.982359886E+00 4.464380443E-01
 -4.000000000E+00 8.983587265E+00 4.366055727E-01
 -4.000000000E+00 8.984740257E+00 4.264717102E-01
 -4.000000000E+00 8.985821724E+00 4.159946144E-01
 -4.000000000E+00 8.986836433E+00 4.051271975E-01
 -4.000000000E+00 8.987789154E+00 3.938297033E-01
 -4.000000000E+00 8.988682747E+00 3.820710480E-01
 -4.000000000E+00 8.989521980E+00 3.698241711E-01
 -4.000000000E+00 8.990308762E+00 3.570654094E-01
 -4.000000000E+00 8.991047859E+00 3.437761068E-01
 -4.000000000E+00 8.991741180E+00 3.299441040E-01
 -4.000000000E+00 8.992391586E+00 3.155643046E-01
 -4.000000000E+00 8.993001938E+00 3.006259501E-01
 -4.000000000E+00 8.993574142E+00 2.851029038E-01
 -4.000000000E+00 8.994112015E+00 2.689830065E-01
 -4.000000000E+00 8.994616508E+00 2.523054481E-01
 -4.000000000E+00 8.995089531E+00 2.351650298E-01
 -4.000000000E+00 8.995533943E+00 2.177090198E-01
 -4.000000000E+00 8.995950699E+00 2.001329660E-01
 -4.000000000E+00 8.996341705E+00 1.826630831E-01
 -4.000000000E+00 8.996707916E+00 1.655274481E-01
 -4.000000000E+00 8.997052193E+00 1.489252597E-01
 -4.000000000E+00 8.997375488E+00 1.330056340E-01
 -4.000000000E+00 8.997678757E+00 1.178611740E-01
 -4.000000000E+00 8.997962952E+00 1.035343185E-01
 -4.000000000E+00 8.998229980E+00 9.003008902E-02
 -4.000000000E+00 8.998479843E+00 7.732930034E-02
 -4.000000000E+00 8.998715401E+00 6.539907306E-02
 -4.000000000E+00 8.998935699E+00 5.420009419E-02
 -4.000000000E+00 8.999142647E+00 4.369096085E-02
 -4.000000000E+00 8.999336243E+00 3.383060917E-02
 -4.000000000E+00 8.999518394E+00 2.457952127E-02
 -4.000000000E+00 8.999689102E+00 1.590020768E-02
 -4.000000000E+00 8.999849319E+00 7.757352199E-03
 -4.000000000E+00 9.000000000E+00 3.814320313E-03
ZONE T="x/H=1"
 1.000000000E+00 0.000000000E+00 0.000000000E+00
 1.000000000E+00 1.500749349E-04 1.659710833E-04
 1.000000000E+00 3.087310179E-04 3.373599611E-04
 1.000000000E+00 4.765522899E-04 5.166945630E-04
 1.000000000E+00 6.541581242E-04 7.042948273E-04
 1.000000000E+00 8.422057144E-04 9.004680323E-04
 1.000000000E+00 1.041392214E-03 1.105504576E-03
 1.000000000E+00 1.252457150E-03 1.319671748E-03
 1.000000000E+00 1.476185862E-03 1.543207560E-03
 1.000000000E+00 1.713411068E-03 1.776312944E-03
 1.000000000E+00 1.965016825E-03 2.019142499E-03
 1.000000000E+00 2.231941791E-03 2.271794714E-03
 1.000000000E+00 2.515181201E-03 2.534299158E-03
 1.000000000E+00 2.815792104E-03 2.806602744E-03
 1.000000000E+00 3.134895815E-03 3.088554135E-03
 1.000000000E+00 3.473682096E-03 3.379883710E-03
 1.000000000E+00 3.833413823E-03 3.680183552E-03
 1.000000000E+00 4.215430468E-03 3.988881130E-03
 1.000000000E+00 4.621152766E-03 4.305212758E-03
 1.000000000E+00 5.052087829E-03 4.628185648E-03
 1.000000000E+00 5.509833805E-03 4.956545308E-03
 1.000000000E+00 5.996085238E-03 5.288726650E-03
 1.000000000E+00 6.512639113E-03 5.622805562E-03
 1.000000000E+00 7.061398588E-03 5.956434645E-03
 1.000000000E+00 7.644380908E-03 6.286777090E-03
 1.000000000E+00 8.263722993E-03 6.610425655E-03
 1.000000000E+00 8.921687491E-03 6.923308596E-03
 1.000000000E+00 9.620669298E-03 7.220583502E-03
 1.000000000E+00 1.036320440E-02 7.496520877E-03
 1.000000000E+00 1.115197316E-02 7.744375616E-03
 1.000000000E+00 1.198981050E-02 7.956250571E-03
 1.000000000E+00 1.287971530E-02 8.122985251E-03
 1.000000000E+00 1.382485218E-02 8.234080859E-03
 1.000000000E+00 1.482856460E-02 8.277693763E-03
 1.000000000E+00 1.589438133E-02 8.240809664E-03
 1.000000000E+00 1.702602394E-02 8.109617047E-03
 1.000000000E+00 1.822741330E-02 7.870206609E-03
 1.000000000E+00 1.950268447E-02 7.509590127E-03
 1.000000000E+00 2.085618302E-02 7.016935851E-03
 1.000000000E+00 2.229248732E-02 6.384793203E-03
 1.000000000E+00 2.381640300E-02 5.609919317E-03
 1.000000000E+00 2.543297783E-02 4.693398718E-03
 1.000000000E+00 2.714750916E-02 3.639936913E-03
 1.000000000E+00 2.896554396E-02 2.456577960E-03
 1.000000000E+00 3.089288995E-02 1.151253819E-03
 1.000000000E+00 3.293561935E-02 -2.683924686E-04
 1.000000000E+00 3.510007635E-02 -1.795685384E-03
 1.000000000E+00 3.739286959E-02 -3.425087314E-03
 1.000000000E+00 3.982088342E-02 -5.151988007E-03
 1.000000000E+00 4.239127785E-02 -6.972272415E-03
 1.000000000E+00 4.511147365E-02 -8.881806396E-03
 1.000000000E+00 4.798916727E-02 -1.087592542E-02
 1.000000000E+00 5.103230849E-02 -1.294897962E-02
 1.000000000E+00 5.424910039E-02 -1.509395335E-02
 1.000000000E+00 5.764798820E-02 -1.730219834E-02
 1.000000000E+00 6.123762950E-02 -1.956325024E-02
 1.000000000E+00 6.502689421E-02 -2.186479792E-02
 1.000000000E+00 6.902483106E-02 -2.419273742E-02
 1.000000000E+00 7.324063778E-02 -2.653136104E-02
 1.000000000E+00 7.768364996E-02 -2.886359207E-02
 1.000000000E+00 8.236327022E-02 -3.117137961E-02
 1.000000000E+00 8.728893846E-02 -3.343611956E-02
 1.000000000E+00 9.247011691E-02 -3.563918546E-02
 1.000000000E+00 9.791619331E-02 -3.776243702E-02
 1.000000000E+00 1.036364213E-01 -3.978870064E-02
 1.000000000E+00 1.096399054E-01 -4.170224443E-02
 1.000000000E+00 1.159354597E-01 -4.348917678E-02
 1.000000000E+00 1.225315928E-01 -4.513768852E-02
 1.000000000E+00 1.294363886E-01 -4.663825408E-02
 1.000000000E+00 1.366574168E-01 -4.798370227E-02
 1.000000000E+00 1.442016512E-01 -4.916913807E-02
 1.000000000E+00 1.520753801E-01 -5.019181967E-02
 1.000000000E+00 1.602840871E-01 -5.105094612E-02
 1.000000000E+00 1.688323319E-01 -5.174737424E-02
 1.000000000E+00 1.777237058E-01 -5.228335410E-02
 1.000000000E+00 1.869606376E-01 -5.266223848E-02
 1.000000000E+00 1.965443641E-01 -5.288819969E-02
 1.000000000E+00 2.064747959E-01 -5.296598747E-02
 1.000000000E+00 2.167504281E-01 -5.290076509E-02
 1.000000000E+00 2.273682207E-01 -5.269790068E-02
 1.000000000E+00 2.383235991E-01 -5.236291140E-02
 1.000000000E+00 2.496102750E-01 -5.190134794E-02
 1.000000000E+00 2.612203062E-01 -5.131876096E-02
 1.000000000E+00 2.731439471E-01 -5.062072724E-02
 1.000000000E+00 2.853696942E-01 -4.981282726E-02
 1.000000000E+00 2.978843451E-01 -4.890065268E-02
 1.000000000E+00 3.106728196E-01 -4.788989201E-02
 1.000000000E+00 3.237183690E-01 -4.678630456E-02
 1.000000000E+00 3.370026648E-01 -4.559579864E-02
 1.000000000E+00 3.505057096E-01 -4.432441667E-02
 1.000000000E+00 3.642061055E-01 -4.297837615E-02
 1.000000000E+00 3.780810535E-01 -4.156410322E-02
 1.000000000E+00 3.921067119E-01 -4.008816928E-02
 1.000000000E+00 4.062580764E-01 -3.855735436E-02
 1.000000000E+00 4.205094278E-01 -3.697856143E-02
 1.000000000E+00 4.348344207E-01 -3.535884991E-02
 1.000000000E+00 4.492062032E-01 -3.370535001E-02
 1.000000000E+00 4.635978639E-01 -3.202523291E-02
 1.000000000E+00 4.779824615E-01 -3.032565676E-02
 1.000000000E+00 4.923332930E-01 -2.861369774E-02
 1.000000000E+00 5.066241622E-01 -2.689627372E-02
 1.000000000E+00 5.208296180E-01 -2.518007345E-02
 1.000000000E+00 5.349249244E-01 -2.347144298E-02
 1.000000000E+00 5.488865972E-01 -2.177630551E-02
 1.000000000E+00 5.626922846E-01 -2.010003105E-02
 1.000000000E+00 5.763211846E-01 -1.844732277E-02
 1.000000000E+00 5.897538066E-01 -1.682207175E-02
 1.000000000E+00 6.029724479E-01 -1.522722002E-02
 1.000000000E+00 6.159611940E-01 -1.366460603E-02
 1.000000000E+00 6.287056804E-01 -1.213481277E-02
 1.000000000E+00 6.411936283E-01 -1.063703559E-02
 1.000000000E+00 6.534144878E-01 -9.168949910E-03
 1.000000000E+00 6.653595567E-01 -7.726639975E-03
 1.000000000E+00 6.770219207E-01 -6.304531824E-03
 1.000000000E+00 6.883966327E-01 -4.895343911E-03
 1.000000000E+00 6.994803548E-01 -3.489974421E-03
 1.000000000E+00 7.102713585E-01 -2.077248879E-03
 1.000000000E+00 7.207696438E-01 -6.434521638E-04
 1.000000000E+00 7.309766412E-01 8.278948371E-04
 1.000000000E+00 7.408953309E-01 2.355728997E-03
 1.000000000E+00 7.505297661E-01 3.962570801E-03
 1.000000000E+00 7.598854303E-01 5.677849520E-03
 1.000000000E+00 7.689688206E-01 7.540692110E-03
 1.000000000E+00 7.777875066E-01 9.601383470E-03
 1.000000000E+00 7.863498926E-01 1.192289311E-02
 1.000000000E+00 7.946652770E-01 1.458223257E-02
 1.000000000E+00 8.027436137E-01 1.767025702E-02
 1.000000000E+00 8.105954528E-01 2.128859237E-02
 1.000000000E+00 8.182319403E-01 2.553241327E-02
 1.000000000E+00 8.256042004E-01 3.046543524E-02
 1.000000000E+00 8.326897025E-01 3.611609712E-02
 1.000000000E+00 8.394981027E-01 4.248292372E-02
 1.000000000E+00 8.460389972E-01 4.953154549E-02
 1.000000000E+00 8.523222208E-01 5.719772354E-02
 1.000000000E+00 8.583575487E-01 6.539856642E-02
 1.000000000E+00 8.641546965E-01 7.404379547E-02
 1.000000000E+00 8.697232008E-01 8.304450661E-02
 1.000000000E+00 8.750725389E-01 9.231854975E-02
 1.000000000E+00 8.802121878E-01 1.017931923E-01
 1.000000000E+00 8.851511478E-01 1.114058197E-01
 1.000000000E+00 8.898984194E-01 1.211034730E-01
 1.000000000E+00 8.944627047E-01 1.308419257E-01
 1.000000000E+00 8.988524675E-01 1.405845433E-01
 1.000000000E+00 9.030758739E-01 1.503012478E-01
 1.000000000E+00 9.071409106E-01 1.599673927E-01
 1.000000000E+00 9.110552073E-01 1.695630550E-01
 1.000000000E+00 9.148262739E-01 1.790721714E-01
 1.000000000E+00 9.184611440E-01 1.884819716E-01
 1.000000000E+00 9.219666123E-01 1.977825314E-01
 1.000000000E+00 9.253494143E-01 2.069661468E-01
 1.000000000E+00 9.286156893E-01 2.160272598E-01
 1.000000000E+00 9.317715764E-01 2.249618620E-01
 1.000000000E+00 9.348228574E-01 2.337674648E-01
 1.000000000E+00 9.377749562E-01 2.424427420E-01
 1.000000000E+00 9.406331778E-01 2.509874105E-01
 1.000000000E+00 9.434025884E-01 2.594020665E-01
 1.000000000E+00 9.460878968E-01 2.676879764E-01
 1.000000000E+00 9.486937523E-01 2.758470476E-01
 1.000000000E+00 9.512243867E-01 2.838817537E-01
 1.000000000E+00 9.536840320E-01 2.917947769E-01
 1.000000000E+00 9.560765624E-01 2.995893657E-01
 1.000000000E+00 9.584057331E-01 3.072688580E-01
 1.000000000E+00 9.606750607E-01 3.148368299E-01
 1.000000000E+00 9.628879428E-01 3.222970068E-01
 1.000000000E+00 9.650474787E-01 3.296532631E-01
 1.000000000E+00 9.671568274E-01 3.369094431E-01
 1.000000000E+00 9.692187309E-01 3.440694511E-01
 1.000000000E+00 9.712360501E-01 3.511372507E-01
 1.000000000E+00 9.732112885E-01 3.581166565E-01
 1.000000000E+00 9.751468897E-01 3.650115132E-01
 1.000000000E+00 9.770451784E-01 3.718255758E-01
 1.000000000E+00 9.789084196E-01 3.785624802E-01
 1.000000000E+00 9.807386398E-01 3.852258623E-01
 1.000000000E+00 9.825378060E-01 3.918190598E-01
 1.000000000E+00 9.843078852E-01 3.983454704E-01
 1.000000000E+00 9.860506058E-01 4.048081934E-01
 1.000000000E+00 9.877676368E-01 4.112103581E-01
 1.000000000E+00 9.894605279E-01 4.175547659E-01
 1.000000000E+00 9.911309481E-01 4.238442183E-01
 1.000000000E+00 9.927802086E-01 4.300811589E-01
 1.000000000E+00 9.944097996E-01 4.362681806E-01
 1.000000000E+00 9.960208535E-01 4.424073100E-01
 1.000000000E+00 9.976147413E-01 4.485006630E-01
 1.000000000E+00 9.991925955E-01 4.545501769E-01
 1.000000000E+00 1.000755548E+00 4.605574012E-01
 1.000000000E+00 1.002304673E+00 4.665238559E-01
 1.000000000E+00 1.003840923E+00 4.724509120E-01
 1.000000000E+00 1.005365252E+00 4.783396125E-01
 1.000000000E+00 1.006878734E+00 4.841907918E-01
 1.000000000E+00 1.008381963E+00 4.900052249E-01
 1.000000000E+00 1.009876132E+00 4.957833588E-01
 1.000000000E+00 1.011361718E+00 5.015253425E-01
 1.000000000E+00 1.012839675E+00 5.072391033E-01
 1.000000000E+00 1.014318705E+00 5.129476190E-01
 1.000000000E+00 1.015807629E+00 5.186735988E-01
 1.000000000E+00 1.017307401E+00 5.244240165E-01
 1.000000000E+00 1.018818736E+00 5.301975608E-01
 1.000000000E+00 1.020342350E+00 5.359927416E-01
 1.000000000E+00 1.021879435E+00 5.418074727E-01
 1.000000000E+00 1.023430705E+00 5.476396084E-01
 1.000000000E+00 1.024997234E+00 5.534862280E-01
 1.000000000E+00 1.026580215E+00 5.593440533E-01
 1.000000000E+00 1.028180480E+00 5.652091503E-01
 1.000000000E+00 1.029799461E+00 5.710770488E-01
 1.000000000E+00 1.031438231E+00 5.769422054E-01
 1.000000000E+00 1.033098221E+00 5.827986598E-01
 1.000000000E+00 1.034780741E+00 5.886394382E-01
 1.000000000E+00 1.036487222E+00 5.944567323E-01
 1.000000000E+00 1.038219213E+00 6.002418995E-01
 1.000000000E+00 1.039978385E+00 6.059851646E-01
 1.000000000E+00 1.041766405E+00 6.116761565E-01
 1.000000000E+00 1.043585062E+00 6.173034906E-01
 1.000000000E+00 1.045436382E+00 6.228553057E-01
 1.000000000E+00 1.047322392E+00 6.283190250E-01
 1.000000000E+00 1.049245119E+00 6.336823106E-01
 1.000000000E+00 1.051206946E+00 6.389324665E-01
 1.000000000E+00 1.053210378E+00 6.440578699E-01
 1.000000000E+00 1.055257797E+00 6.490474343E-01
 1.000000000E+00 1.057352066E+00 6.538918018E-01
 1.000000000E+00 1.059496045E+00 6.585834026E-01
 1.000000000E+00 1.061692715E+00 6.631168127E-01
 1.000000000E+00 1.063945413E+00 6.674892902E-01
 1.000000000E+00 1.066257596E+00 6.717008352E-01
 1.000000000E+00 1.068632841E+00 6.757538915E-01
 1.000000000E+00 1.071074963E+00 6.796537042E-01
 1.000000000E+00 1.073588252E+00 6.834076643E-01
 1.000000000E+00 1.076176882E+00 6.870251894E-01
 1.000000000E+00 1.078845739E+00 6.905171871E-01
 1.000000000E+00 1.081599474E+00 6.938956380E-01
 1.000000000E+00 1.084443450E+00 6.971732974E-01
 1.000000000E+00 1.087383270E+00 7.003632188E-01
 1.000000000E+00 1.090424657E+00 7.034781575E-01
 1.000000000E+00 1.093573928E+00 7.065308094E-01
 1.000000000E+00 1.096837759E+00 7.095332742E-01
 1.000000000E+00 1.100223184E+00 7.124971151E-01
 1.000000000E+00 1.103737593E+00 7.154330611E-01
 1.000000000E+00 1.107388973E+00 7.183510661E-01
 1.000000000E+00 1.111185789E+00 7.212601304E-01
 1.000000000E+00 1.115136862E+00 7.241687179E-01
 1.000000000E+00 1.119251847E+00 7.270841002E-01
 1.000000000E+00 1.123540759E+00 7.300132513E-01
 1.000000000E+00 1.128014207E+00 7.329617739E-01
 1.000000000E+00 1.132683516E+00 7.359353304E-01
 1.000000000E+00 1.137560844E+00 7.389383316E-01
 1.000000000E+00 1.142658949E+00 7.419751883E-01
 1.000000000E+00 1.147991180E+00 7.450492382E-01
 1.000000000E+00 1.153571963E+00 7.481638193E-01
 1.000000000E+00 1.159416676E+00 7.513217330E-01
 1.000000000E+00 1.165541291E+00 7.545252442E-01
 1.000000000E+00 1.171962857E+00 7.577765584E-01
 1.000000000E+00 1.178699493E+00 7.610777020E-01
 1.000000000E+00 1.185770392E+00 7.644302249E-01
 1.000000000E+00 1.193195820E+00 7.678358555E-01
 1.000000000E+00 1.200997233E+00 7.712959647E-01
 1.000000000E+00 1.209197283E+00 7.748121023E-01
 1.000000000E+00 1.217820168E+00 7.783856392E-01
 1.000000000E+00 1.226891041E+00 7.820190191E-01
 1.000000000E+00 1.236445308E+00 7.857217789E-01
 1.000000000E+00 1.246588945E+00 7.895097733E-01
 1.000000000E+00 1.257356644E+00 7.933907509E-01
 1.000000000E+00 1.268784761E+00 7.973648906E-01
 1.000000000E+00 1.280911565E+00 8.014316559E-01
 1.000000000E+00 1.293777347E+00 8.055915236E-01
 1.000000000E+00 1.307424188E+00 8.098444343E-01
 1.000000000E+00 1.321896553E+00 8.141906857E-01
 1.000000000E+00 1.337240696E+00 8.186308146E-01
 1.000000000E+00 1.353505373E+00 8.231658340E-01
 1.000000000E+00 1.370741010E+00 8.277968168E-01
 1.000000000E+00 1.389000773E+00 8.325255513E-01
 1.000000000E+00 1.408339858E+00 8.373541236E-01
 1.000000000E+00 1.428815722E+00 8.422855139E-01
 1.000000000E+00 1.450488210E+00 8.473235965E-01
 1.000000000E+00 1.473419428E+00 8.524735570E-01
 1.000000000E+00 1.497673512E+00 8.577420712E-01
 1.000000000E+00 1.523316979E+00 8.631379604E-01
 1.000000000E+00 1.550418496E+00 8.686754704E-01
 1.000000000E+00 1.579048634E+00 8.743716478E-01
 1.000000000E+00 1.609279990E+00 8.802375793E-01
 1.000000000E+00 1.641186953E+00 8.862802982E-01
 1.000000000E+00 1.674845338E+00 8.925119638E-01
 1.000000000E+00 1.710332632E+00 8.989520669E-01
 1.000000000E+00 1.747727394E+00 9.056261778E-01
 1.000000000E+00 1.787108898E+00 9.125642180E-01
 1.000000000E+00 1.828557253E+00 9.197962880E-01
 1.000000000E+00 1.872152448E+00 9.273445010E-01
 1.000000000E+00 1.917974591E+00 9.352084994E-01
 1.000000000E+00 1.966102839E+00 9.433479309E-01
 1.000000000E+00 2.016615391E+00 9.516720772E-01
 1.000000000E+00 2.069588423E+00 9.600504637E-01
 1.000000000E+00 2.125096083E+00 9.683603048E-01
 1.000000000E+00 2.183209419E+00 9.765304327E-01
 1.000000000E+00 2.243995428E+00 9.845047593E-01
 1.000000000E+00 2.307517290E+00 9.921026230E-01
 1.000000000E+00 2.373832703E+00 9.988639951E-01
 1.000000000E+00 2.442992687E+00 1.004052877E+00
 1.000000000E+00 2.515042067E+00 1.007007241E+00
 1.000000000E+00 2.590017557E+00 1.007708311E+00
 1.000000000E+00 2.667947292E+00 1.006998181E+00
 1.000000000E+00 2.748849630E+00 1.005990863E+00
 1.000000000E+00 2.832732677E+00 1.005172014E+00
 1.000000000E+00 2.919592857E+00 1.004414082E+00
 1.000000000E+00 3.009414673E+00 1.003630757E+00
 1.000000000E+00 3.102169275E+00 1.002849102E+00
 1.000000000E+00 3.197814703E+00 1.002067208E+00
 1.000000000E+00 3.296294689E+00 1.001286983E+00
 1.000000000E+00 3.397537470E+00 1.000511050E+00
 1.000000000E+00 3.501456976E+00 9.997414351E-01
 1.000000000E+00 3.607951164E+00 9.989799261E-01
 1.000000000E+00 3.716902971E+00 9.982287884E-01
 1.000000000E+00 3.828179598E+00 9.974895716E-01
 1.000000000E+00 3.941633224E+00 9.967643619E-01
 1.000000000E+00 4.057101250E+00 9.960543513E-01
 1.000000000E+00 4.174407482E+00 9.953613281E-01
 1.000000000E+00 4.293362617E+00 9.946863651E-01
 1.000000000E+00 4.413764000E+00 9.940308928E-01
 1.000000000E+00 4.535399437E+00 9.933958650E-01
 1.000000000E+00 4.658046722E+00 9.927820563E-01
 1.000000000E+00 4.781475544E+00 9.921902418E-01
 1.000000000E+00 4.905449390E+00 9.916209579E-01
 1.000000000E+00 5.029727459E+00 9.910746217E-01
 1.000000000E+00 5.154065132E+00 9.905512929E-01
 1.000000000E+00 5.278218746E+00 9.900512695E-01
 1.000000000E+00 5.401944160E+00 9.895744324E-01
 1.000000000E+00 5.525001526E+00 9.891207814E-01
 1.000000000E+00 5.647155285E+00 9.886897802E-01
 1.000000000E+00 5.768176556E+00 9.882813692E-01
 1.000000000E+00 5.887844563E+00 9.878949523E-01
 1.000000000E+00 6.005949974E+00 9.875300527E-01
 1.000000000E+00 6.122292519E+00 9.871859550E-01
 1.000000000E+00 6.236685753E+00 9.868620634E-01
 1.000000000E+00 6.348957539E+00 9.865577817E-01
 1.000000000E+00 6.458948612E+00 9.862723351E-01
 1.000000000E+00 6.566515446E+00 9.860050678E-01
 1.000000000E+00 6.671530724E+00 9.857552052E-01
 1.000000000E+00 6.773881435E+00 9.855211377E-01
 1.000000000E+00 6.873472214E+00 9.852987528E-01
 1.000000000E+00 6.970221519E+00 9.850879908E-01
 1.000000000E+00 7.064064980E+00 9.849140644E-01
 1.000000000E+00 7.154951572E+00 9.848303199E-01
 1.000000000E+00 7.242846489E+00 9.847922325E-01
 1.000000000E+00 7.327727318E+00 9.843040705E-01
 1.000000000E+00 7.409585476E+00 9.821557999E-01
 1.000000000E+00 7.488424301E+00 9.770472646E-01
 1.000000000E+00 7.564259052E+00 9.690189958E-01
 1.000000000E+00 7.637114048E+00 9.596011043E-01