VARIABLES = "x/c" "z/c" "cf_x"
ZONE T="FUN3D Family 1 flap"
 Nodes=8052, Elements=4026, ZONETYPE=FEQuadrilateral
 DATAPACKING=POINT
 DT=(SINGLE SINGLE SINGLE )
 8.455063701E-01 6.264837924E-03 -7.522279338E-05
 8.455069661E-01 6.404789165E-03 1.808590314E-04
 8.455104232E-01 6.544700824E-03 4.408184905E-04
 8.455168009E-01 6.684509106E-03 7.028989494E-04
 8.455260396E-01 6.824158598E-03 9.658022900E-04
 8.455380797E-01 6.963592488E-03 1.229112269E-03
 8.455529213E-01 7.102758158E-03 1.492681564E-03
 8.455705047E-01 7.241603453E-03 1.756340265E-03
 8.455908298E-01 7.380077615E-03 2.019932959E-03
 8.456137776E-01 7.518133614E-03 2.283310983E-03
 8.456394076E-01 7.655723486E-03 2.546332078E-03
 8.456676006E-01 7.792803459E-03 2.808852354E-03
 8.456984162E-01 7.929328829E-03 3.070718376E-03
 8.457317352E-01 8.065258153E-03 3.331754589E-03
 8.457675576E-01 8.200550452E-03 3.591748420E-03
 8.458058238E-01 8.335165679E-03 3.850429552E-03
 8.458465338E-01 8.469065651E-03 4.107444081E-03
 8.458896875E-01 8.602213115E-03 4.362311680E-03
 8.459351659E-01 8.734570816E-03 4.614361562E-03
 8.459829688E-01 8.866103366E-03 4.862646572E-03
 8.460330963E-01 8.996774442E-03 5.105732474E-03
 8.460854888E-01 9.126550518E-03 5.341512617E-03
 8.461401463E-01 9.255398065E-03 5.568434950E-03
 8.461969495E-01 9.383287281E-03 5.787329283E-03
 8.462559581E-01 9.510201402E-03 6.000664551E-03
 8.463170528E-01 9.636124596E-03 6.210672203E-03
 8.463801742E-01 9.761041962E-03 6.418974139E-03
 8.464452624E-01 9.884942323E-03 6.626949180E-03
 8.465122581E-01 1.000781730E-02 6.836049259E-03
 8.465811014E-01 1.012965944E-02 7.047973108E-03
 8.466517925E-01 1.025046222E-02 7.264910266E-03
 8.467242122E-01 1.037022006E-02 7.489645854E-03
 8.467983007E-01 1.048893575E-02 7.722756360E-03
 8.468741179E-01 1.060658600E-02 7.960810326E-03
 8.469515443E-01 1.072315685E-02 8.199850097E-03
 8.470306396E-01 1.083862875E-02 8.437856100E-03
 8.471113443E-01 1.095298398E-02 8.673949167E-03
 8.471935987E-01 1.106620487E-02 8.907605894E-03
 8.472774625E-01 1.117827464E-02 9.138331749E-03
 8.473628163E-01 1.128917653E-02 9.365530685E-03
 8.474497199E-01 1.139889285E-02 9.588397108E-03
 8.475381136E-01 1.150740590E-02 9.805755690E-03
 8.476279378E-01 1.161469985E-02 1.001698431E-02
 8.477192521E-01 1.172076259E-02 1.022321079E-02
 8.478119969E-01 1.182558481E-02 1.042622328E-02
 8.479061127E-01 1.192915812E-02 1.062701177E-02
 8.480015993E-01 1.203147322E-02 1.082588453E-02
 8.480984569E-01 1.213252265E-02 1.102291420E-02
 8.481966257E-01 1.223229989E-02 1.121808030E-02
 8.482960463E-01 1.233079843E-02 1.141131669E-02
 8.483967185E-01 1.242801175E-02 1.160252746E-02
 8.484986424E-01 1.252393425E-02 1.179159619E-02
 8.486017585E-01 1.261856128E-02 1.197837945E-02
 8.487060666E-01 1.271188632E-02 1.216270588E-02
 8.488115072E-01 1.280390564E-02 1.234437339E-02
 8.489180803E-01 1.289461460E-02 1.252313703E-02
 8.490257263E-01 1.298400946E-02 1.269870438E-02
 8.491345048E-01 1.307208557E-02 1.287071873E-02
 8.492443562E-01 1.315883920E-02 1.303874329E-02
 8.493552208E-01 1.324426755E-02 1.320222951E-02
 8.494670987E-01 1.332836598E-02 1.336048450E-02
 8.495799303E-01 1.341113262E-02 1.351265982E-02
 8.496937752E-01 1.349256281E-02 1.365771797E-02
 8.498085141E-01 1.357265376E-02 1.379409991E-02
 8.499242067E-01 1.365140174E-02 1.392091811E-02
 8.500408530E-01 1.372881047E-02 1.403994672E-02
 8.501583338E-01 1.380488463E-02 1.415407937E-02
 8.502766490E-01 1.387963071E-02 1.426488906E-02
 8.503957987E-01 1.395305432E-02 1.437285170E-02
 8.505157232E-01 1.402516384E-02 1.447812747E-02
 8.506364822E-01 1.409596670E-02 1.458077319E-02
 8.507579565E-01 1.416547131E-02 1.468081027E-02
 8.508801460E-01 1.423368603E-02 1.477824803E-02
 8.510030508E-01 1.430062018E-02 1.487309765E-02
 8.511266708E-01 1.436628215E-02 1.496537123E-02
 8.512508869E-01 1.443068217E-02 1.505508367E-02
 8.513758183E-01 1.449383050E-02 1.514224801E-02
 8.515013456E-01 1.455573738E-02 1.522688102E-02
 8.516274691E-01 1.461641211E-02 1.530899480E-02
 8.517541289E-01 1.467586681E-02 1.538860053E-02
 8.518813848E-01 1.473411079E-02 1.546570566E-02
 8.520092368E-01 1.479115617E-02 1.554031763E-02
 8.521375060E-01 1.484701317E-02 1.561243925E-02
 8.522663713E-01 1.490169298E-02 1.568207145E-02
 8.523957133E-01 1.495520771E-02 1.574921422E-02
 8.525254726E-01 1.500756666E-02 1.581386663E-02
 8.526557088E-01 1.505878288E-02 1.587602124E-02
 8.527864218E-01 1.510886755E-02 1.593564823E-02
 8.529175520E-01 1.515783090E-02 1.599279046E-02
 8.530490398E-01 1.520568412E-02 1.604741253E-02
 8.531809449E-01 1.525243931E-02 1.609899849E-02
 8.533132672E-01 1.529810484E-02 1.614688151E-02
 8.534459472E-01 1.534269191E-02 1.619081944E-02
 8.535789251E-01 1.538621169E-02 1.623088494E-02
 8.537123203E-01 1.542867348E-02 1.626722142E-02
 8.538460135E-01 1.547009032E-02 1.629999466E-02
 8.539800048E-01 1.551047247E-02 1.632936671E-02
 8.541142941E-01 1.554983202E-02 1.635549776E-02
 8.542488813E-01 1.558818016E-02 1.637853496E-02
 8.543837667E-01 1.562552899E-02 1.639862917E-02
 8.545189500E-01 1.566188969E-02 1.641592570E-02
 8.546543121E-01 1.569727436E-02 1.643056795E-02
 8.547899723E-01 1.573169604E-02 1.644270122E-02
 8.549258709E-01 1.576516591E-02 1.645247452E-02
 8.550620079E-01 1.579769701E-02 1.646003686E-02
 8.551983237E-01 1.582930237E-02 1.646554098E-02
 8.553348780E-01 1.585999317E-02 1.646915078E-02
 8.554716706E-01 1.588978246E-02 1.647103019E-02
 8.556085825E-01 1.591868140E-02 1.647135615E-02
 8.557457328E-01 1.594670489E-02 1.647031866E-02
 8.558830023E-01 1.597386599E-02 1.646812074E-02
 8.560204506E-01 1.600017399E-02 1.646498591E-02
 8.561580777E-01 1.602564380E-02 1.646116376E-02
 8.562958837E-01 1.605028659E-02 1.645693742E-02
 8.564337492E-01 1.607411541E-02 1.645265147E-02
 8.565717936E-01 1.609714516E-02 1.644868217E-02
 8.567100167E-01 1.611938514E-02 1.644537784E-02
 8.568482995E-01 1.614085026E-02 1.644309610E-02
 8.569867015E-01 1.616154984E-02 1.644289494E-02
 8.571252227E-01 1.618149877E-02 1.644528285E-02
 8.572638631E-01 1.620070636E-02 1.644805633E-02
 8.574026227E-01 1.621917449E-02 1.644845121E-02
 8.575414419E-01 1.623691246E-02 1.644549333E-02
 8.576803803E-01 1.625392772E-02 1.643917523E-02
 8.578193784E-01 1.627022587E-02 1.642968319E-02
 8.579584360E-01 1.628581434E-02 1.641723327E-02
 8.580976129E-01 1.630070060E-02 1.640203036E-02
 8.582368493E-01 1.631489024E-02 1.638425328E-02
 8.583761454E-01 1.632838883E-02 1.636406220E-02
 8.585155010E-01 1.634120755E-02 1.634160243E-02
 8.586549163E-01 1.635335013E-02 1.631700806E-02
 8.587944508E-01 1.636482403E-02 1.629040577E-02
 8.589339852E-01 1.637563668E-02 1.626191288E-02
 8.590735197E-01 1.638579555E-02 1.623164490E-02
 8.592131734E-01 1.639530808E-02 1.619971357E-02
 8.593528271E-01 1.640417986E-02 1.616622508E-02
 8.594925404E-01 1.641242020E-02 1.613128930E-02
 8.596323133E-01 1.642003469E-02 1.609500684E-02
 8.597720861E-01 1.642703079E-02 1.605748199E-02
 8.599119186E-01 1.643341407E-02 1.601881348E-02
 8.600517511E-01 1.643919572E-02 1.597910374E-02
 8.601915836E-01 1.644437946E-02 1.593845338E-02
 8.603314757E-01 1.644897461E-02 1.589695923E-02
 8.604713678E-01 1.645298675E-02 1.585472375E-02
 8.606113195E-01 1.645642519E-02 1.581184566E-02
 8.607512116E-01 1.645929366E-02 1.576842368E-02
 8.608911633E-01 1.646160334E-02 1.572456211E-02
 8.610311151E-01 1.646335982E-02 1.568036526E-02
 8.611710668E-01 1.646456867E-02 1.563593745E-02
 8.613110185E-01 1.646523736E-02 1.559139043E-02
 8.614509702E-01 1.646537706E-02 1.554683503E-02
 8.615909219E-01 1.646498963E-02 1.550239325E-02
 8.617308736E-01 1.646408439E-02 1.545818988E-02
 8.618708253E-01 1.646267064E-02 1.541436184E-02
 8.620107770E-01 1.646075211E-02 1.537105720E-02
 8.621507287E-01 1.645833626E-02 1.532844827E-02
 8.622906208E-01 1.645543240E-02 1.528672595E-02
 8.624305725E-01 1.645204611E-02 1.524608769E-02
 8.625704646E-01 1.644818485E-02 1.520668250E-02
 8.627103567E-01 1.644385420E-02 1.516874600E-02
 8.628501892E-01 1.643906347E-02 1.513293013E-02
 8.629900813E-01 1.643381827E-02 1.509925071E-02
 8.631299138E-01 1.642812043E-02 1.506622415E-02
 8.632697463E-01 1.642197557E-02 1.503251959E-02
 8.634095192E-01 1.641538739E-02 1.499783061E-02
 8.635492921E-01 1.640835963E-02 1.496220101E-02
 8.636890650E-01 1.640089415E-02 1.492572762E-02
 8.638287783E-01 1.639299653E-02 1.488850545E-02
 8.639684916E-01 1.638466865E-02 1.485061459E-02
 8.641082048E-01 1.637591608E-02 1.481212117E-02
 8.642478585E-01 1.636674069E-02 1.477308106E-02
 8.643874526E-01 1.635714620E-02 1.473354269E-02
 8.645270467E-01 1.634713821E-02 1.469355077E-02
 8.646666408E-01 1.633671671E-02 1.465314999E-02
 8.648061752E-01 1.632588916E-02 1.461237948E-02
 8.649457097E-01 1.631465554E-02 1.457128115E-02
 8.650851846E-01 1.630302332E-02 1.452989317E-02
 8.652245998E-01 1.629099436E-02 1.448825654E-02
 8.653640151E-01 1.627857052E-02 1.444640849E-02
 8.655033708E-01 1.626575738E-02 1.440439001E-02
 8.656427264E-01 1.625255868E-02 1.436224021E-02
 8.657820225E-01 1.623897813E-02 1.432000101E-02
 8.659212589E-01 1.622501761E-02 1.427771430E-02
 8.660604954E-01 1.621068269E-02 1.423542481E-02
 8.661996722E-01 1.619597711E-02 1.419318095E-02
 8.663387895E-01 1.618090086E-02 1.415103301E-02
 8.664779067E-01 1.616546325E-02 1.410903968E-02
 8.666169643E-01 1.614966244E-02 1.406725775E-02
 8.667559624E-01 1.613350585E-02 1.402573381E-02
 8.668949604E-01 1.611699536E-02 1.398452371E-02
 8.670338988E-01 1.610013656E-02 1.394379977E-02
 8.671727777E-01 1.608292945E-02 1.390361786E-02
 8.673116565E-01 1.606537960E-02 1.386364270E-02
 8.674504757E-01 1.604748704E-02 1.382352412E-02
 8.675892353E-01 1.602925733E-02 1.378317364E-02
 8.677279353E-01 1.601069234E-02 1.374260709E-02
 8.678666353E-01 1.599179395E-02 1.370185707E-02
 8.680052161E-01 1.597256586E-02 1.366095524E-02
 8.681437969E-01 1.595300995E-02 1.361993048E-02
 8.682823777E-01 1.593312807E-02 1.357880607E-02
 8.684208393E-01 1.591292396E-02 1.353760250E-02
 8.685593009E-01 1.589240134E-02 1.349634025E-02
 8.686977029E-01 1.587156020E-02 1.345503889E-02
 8.688360453E-01 1.585040614E-02 1.341371611E-02
 8.689743280E-01 1.582893915E-02 1.337239053E-02
 8.691126108E-01 1.580716483E-02 1.333108265E-02
 8.692507744E-01 1.578508131E-02 1.328981016E-02
 8.693889380E-01 1.576269604E-02 1.324859262E-02
 8.695270419E-01 1.574000902E-02 1.320745051E-02
 8.696650863E-01 1.571702398E-02 1.316640340E-02
 8.698031306E-01 1.569374278E-02 1.312547177E-02
 8.699410558E-01 1.567016728E-02 1.308467705E-02
 8.700789809E-01 1.564630121E-02 1.304404158E-02
 8.702168465E-01 1.562214829E-02 1.300358959E-02
 8.703546524E-01 1.559770945E-02 1.296334434E-02
 8.704923987E-01 1.557298750E-02 1.292333193E-02
 8.706300855E-01 1.554798521E-02 1.288358029E-02
 8.707677722E-01 1.552270632E-02 1.284412108E-02
 8.709053397E-01 1.549715176E-02 1.280498691E-02
 8.710429072E-01 1.547132432E-02 1.276621874E-02
 8.711804152E-01 1.544522773E-02 1.272785757E-02
 8.713178635E-01 1.541886292E-02 1.268993877E-02
 8.714552522E-01 1.539223455E-02 1.265248843E-02
 8.715925813E-01 1.536534354E-02 1.261560060E-02
 8.717299104E-01 1.533819269E-02 1.257942617E-02
 8.718671799E-01 1.531078480E-02 1.254383568E-02
 8.720043302E-01 1.528312173E-02 1.250844169E-02
 8.721414804E-01 1.525520347E-02 1.247300301E-02
 8.722785711E-01 1.522703283E-02 1.243748702E-02
 8.724156022E-01 1.519861165E-02 1.240191329E-02
 8.725526333E-01 1.516994089E-02 1.236630231E-02
 8.726895452E-01 1.514102239E-02 1.233067177E-02
 8.728264570E-01 1.511185709E-02 1.229503658E-02
 8.729632497E-01 1.508244779E-02 1.225940604E-02
 8.731000423E-01 1.505279634E-02 1.222378854E-02
 8.732367754E-01 1.502290182E-02 1.218819339E-02
 8.733734488E-01 1.499276888E-02 1.215262339E-02
 8.735100627E-01 1.496239658E-02 1.211708784E-02
 8.736466169E-01 1.493178867E-02 1.208159328E-02
 8.737831712E-01 1.490094513E-02 1.204614621E-02
 8.739196062E-01 1.486986876E-02 1.201075409E-02
 8.740560412E-01 1.483855955E-02 1.197542436E-02
 8.741923571E-01 1.480702125E-02 1.194016356E-02
 8.743286729E-01 1.477525383E-02 1.190498006E-02
 8.744649291E-01 1.474325918E-02 1.186988037E-02
 8.746011257E-01 1.471103914E-02 1.183487382E-02
 8.747372627E-01 1.467859466E-02 1.179996692E-02
 8.748733401E-01 1.464592852E-02 1.176516991E-02
 8.750094175E-01 1.461304165E-02 1.173048932E-02
 8.751453757E-01 1.457993500E-02 1.169593632E-02
 8.752813339E-01 1.454661135E-02 1.166151930E-02
 8.754171729E-01 1.451307163E-02 1.162724756E-02
 8.755530119E-01 1.447931677E-02 1.159313321E-02
 8.756887913E-01 1.444534957E-02 1.155918743E-02
 8.758245111E-01 1.441117190E-02 1.152542233E-02
 8.759601712E-01 1.437678281E-02 1.149185095E-02
 8.760957718E-01 1.434218697E-02 1.145849004E-02
 8.762313724E-01 1.430738345E-02 1.142535545E-02
 8.763668537E-01 1.427237596E-02 1.139246207E-02
 8.765023351E-01 1.423716359E-02 1.135981735E-02
 8.766376972E-01 1.420175005E-02 1.132746041E-02
 8.767730594E-01 1.416613720E-02 1.129545458E-02
 8.769083619E-01 1.413032319E-02 1.126374211E-02
 8.770436049E-01 1.409431268E-02 1.123216748E-02
 8.771787882E-01 1.405810472E-02 1.120064780E-02
 8.773139119E-01 1.402170211E-02 1.116917841E-02
 8.774490356E-01 1.398510393E-02 1.113776490E-02
 8.775840402E-01 1.394831296E-02 1.110641658E-02
 8.777190447E-01 1.391133014E-02 1.107514184E-02
 8.778539896E-01 1.387415547E-02 1.104394626E-02
 8.779888153E-01 1.383679174E-02 1.101283357E-02
 8.781236410E-01 1.379923895E-02 1.098180842E-02
 8.782584071E-01 1.376149803E-02 1.095087267E-02
 8.783931732E-01 1.372357178E-02 1.092003100E-02
 8.785278201E-01 1.368545927E-02 1.088928711E-02
 8.786624670E-01 1.364716236E-02 1.085864287E-02
 8.787969947E-01 1.360868290E-02 1.082810294E-02
 8.789315224E-01 1.357002184E-02 1.079767104E-02
 8.790659904E-01 1.353117917E-02 1.076735090E-02
 8.792003989E-01 1.349215768E-02 1.073714625E-02
 8.793347478E-01 1.345295645E-02 1.070706174E-02
 8.794690371E-01 1.341357920E-02 1.067710202E-02
 8.796032667E-01 1.337402407E-02 1.064727083E-02
 8.797374964E-01 1.333429478E-02 1.061757375E-02
 8.798716068E-01 1.329439133E-02 1.058801543E-02
 8.800057173E-01 1.325431466E-02 1.055860054E-02
 8.801397681E-01 1.321406662E-02 1.052933559E-02
 8.802737594E-01 1.317364722E-02 1.050022431E-02
 8.804076910E-01 1.313305832E-02 1.047127414E-02
 8.805415630E-01 1.309230179E-02 1.044249348E-02
 8.806754351E-01 1.305137575E-02 1.041388791E-02
 8.808092475E-01 1.301028579E-02 1.038546208E-02
 8.809429407E-01 1.296902914E-02 1.035722718E-02
 8.810766339E-01 1.292760950E-02 1.032919250E-02
 8.812102675E-01 1.288602594E-02 1.030136552E-02
 8.813438416E-01 1.284428127E-02 1.027376018E-02
 8.814774156E-01 1.280237548E-02 1.024638768E-02
 8.816108704E-01 1.276030950E-02 1.021926384E-02
 8.817443252E-01 1.271808613E-02 1.019240078E-02
 8.818777204E-01 1.267570443E-02 1.016580407E-02
 8.820110559E-01 1.263316721E-02 1.013950165E-02
 8.821443319E-01 1.259047352E-02 1.011356339E-02
 8.822775483E-01 1.254762523E-02 1.008796878E-02
 8.824107647E-01 1.250462513E-02 1.006255206E-02
 8.825438619E-01 1.246147044E-02 1.003718376E-02
 8.826769590E-01 1.241816394E-02 1.001183968E-02
 8.828099966E-01 1.237470657E-02 9.986524470E-03
 8.829429746E-01 1.233109552E-02 9.961244650E-03
 8.830759525E-01 1.228733454E-02 9.936003946E-03
 8.832088113E-01 1.224342361E-02 9.910807014E-03
 8.833416700E-01 1.219936367E-02 9.885654785E-03
 8.834744692E-01 1.215515379E-02 9.860548191E-03
 8.836072087E-01 1.211079583E-02 9.835487232E-03
 8.837398887E-01 1.206629071E-02 9.810470976E-03
 8.838725090E-01 1.202163752E-02 9.785499424E-03
 8.840051293E-01 1.197683811E-02 9.760572575E-03
 8.841376901E-01 1.193189248E-02 9.735689498E-03
 8.842701912E-01 1.188680157E-02 9.710850194E-03
 8.844026327E-01 1.184156630E-02 9.686054662E-03
 8.845350146E-01 1.179618575E-02 9.661303833E-03
 8.846673369E-01 1.175066177E-02 9.636596777E-03
 8.847996593E-01 1.170499530E-02 9.611933492E-03
 8.849318624E-01 1.165918540E-02 9.587314911E-03
 8.850640655E-01 1.161323395E-02 9.562741034E-03
 8.851962090E-01 1.156714186E-02 9.538211860E-03
 8.853283525E-01 1.152090821E-02 9.513728321E-03
 8.854603767E-01 1.147453487E-02 9.489290416E-03
 8.855924010E-01 1.142802089E-02 9.464898147E-03
 8.857243657E-01 1.138136908E-02 9.440553375E-03
 8.858562708E-01 1.133457851E-02 9.416255169E-03
 8.859881163E-01 1.128765009E-02 9.392005391E-03
 8.861199021E-01 1.124058384E-02 9.367803112E-03
 8.862516880E-01 1.119338162E-02 9.343649261E-03
 8.863833547E-01 1.114604343E-02 9.319545701E-03
 8.865150213E-01 1.109856926E-02 9.295492433E-03
 8.866466284E-01 1.105096005E-02 9.271489456E-03
 8.867781758E-01 1.100321673E-02 9.247538634E-03
 8.869097233E-01 1.095533930E-02 9.223639965E-03
 8.870411515E-01 1.090732869E-02 9.199793451E-03
 8.871725798E-01 1.085918583E-02 9.176001884E-03
 8.873039484E-01 1.081091072E-02 9.152264334E-03
 8.874352574E-01 1.076250430E-02 9.128582664E-03
 8.875665665E-01 1.071396656E-02 9.104957804E-03
 8.876977563E-01 1.066529937E-02 9.081388824E-03
 8.878289461E-01 1.061650179E-02 9.057879448E-03
 8.879600763E-01 1.056757476E-02 9.034427814E-03
 8.880911469E-01 1.051852014E-02 9.011036716E-03
 8.882221580E-01 1.046933606E-02 8.987706155E-03
 8.883531690E-01 1.042002533E-02 8.964437991E-03
 8.884840608E-01 1.037058793E-02 8.941232227E-03
 8.886149526E-01 1.032102387E-02 8.918089792E-03
 8.887457848E-01 1.027133409E-02 8.895012550E-03
 8.888766170E-01 1.022151951E-02 8.872001432E-03
 8.890073299E-01 1.017158013E-02 8.849056438E-03
 8.891380429E-01 1.012151688E-02 8.826180361E-03
 8.892686963E-01 1.007132977E-02 8.803373203E-03
 8.893992901E-01 1.002101973E-02 8.780635893E-03
 8.895298243E-01 9.970587678E-03 8.757970296E-03
 8.896603584E-01 9.920034558E-03 8.735376410E-03
 8.897908330E-01 9.869359434E-03 8.712857030E-03
 8.899212480E-01 9.818563238E-03 8.690413088E-03
 8.900516033E-01 9.767647833E-03 8.668044582E-03
 8.901818991E-01 9.716612287E-03 8.645754308E-03
 8.903121948E-01 9.665458463E-03 8.623542264E-03
 8.904424310E-01 9.614185430E-03 8.601411246E-03
 8.905726075E-01 9.562795050E-03 8.579361252E-03
 8.907027245E-01 9.511287324E-03 8.557394147E-03
 8.908328414E-01 9.459663182E-03 8.535511792E-03
 8.909628391E-01 9.407923557E-03 8.513716049E-03
 8.910928369E-01 9.356067516E-03 8.492007852E-03
 8.912227750E-01 9.304095991E-03 8.470388129E-03
 8.913527131E-01 9.252010845E-03 8.448860608E-03
 8.914825320E-01 9.199811146E-03 8.427425288E-03
 8.916123509E-01 9.147498757E-03 8.406084962E-03
 8.917421103E-01 9.095073678E-03 8.384841494E-03
 8.918718696E-01 9.042535909E-03 8.363696747E-03
 8.920015097E-01 8.989886381E-03 8.342652582E-03
 8.921311498E-01 8.937126026E-03 8.321711794E-03
 8.922607303E-01 8.884254843E-03 8.300877176E-03
 8.923903108E-01 8.831274696E-03 8.280150592E-03
 8.925197721E-01 8.778183721E-03 8.259534836E-03
 8.926492333E-01 8.724984713E-03 8.239032701E-03
 8.927786350E-01 8.671676740E-03 8.218647912E-03
 8.929080367E-01 8.618261665E-03 8.198384196E-03
 8.930373192E-01 8.564738557E-03 8.178246208E-03
 8.931666017E-01 8.511109278E-03 8.158238605E-03
 8.932958245E-01 8.457373828E-03 8.138366044E-03
 8.934249878E-01 8.403533138E-03 8.118634112E-03
 8.935541511E-01 8.349587210E-03 8.099046536E-03
 8.936832547E-01 8.295536041E-03 8.079607040E-03
 8.938122988E-01 8.241381496E-03 8.060342632E-03
 8.939413428E-01 8.187123574E-03 8.041269146E-03
 8.940702677E-01 8.132762276E-03 8.022330701E-03
 8.941991925E-01 8.078298531E-03 8.003458381E-03
 8.943281174E-01 8.023731411E-03 7.984627970E-03
 8.944569230E-01 7.969062775E-03 7.965836674E-03
 8.945857286E-01 7.914292626E-03 7.947088219E-03
 8.947144747E-01 7.859420031E-03 7.928384468E-03
 8.948431611E-01 7.804445922E-03 7.909726351E-03
 8.949718475E-01 7.749371231E-03 7.891116664E-03
 8.951004744E-01 7.694195490E-03 7.872554474E-03
 8.952290416E-01 7.638919633E-03 7.854038849E-03
 8.953576088E-01 7.583543193E-03 7.835569791E-03
 8.954860568E-01 7.528066635E-03 7.817147300E-03
 8.956145048E-01 7.472490426E-03 7.798770443E-03
 8.957429528E-01 7.416815031E-03 7.780437823E-03
 8.958712816E-01 7.361040451E-03 7.762149908E-03
 8.959996104E-01 7.305167150E-03 7.743906230E-03
 8.961278796E-01 7.249195129E-03 7.725705858E-03
 8.962561488E-01 7.193124387E-03 7.707547862E-03
 8.963842988E-01 7.136957720E-03 7.689433638E-03
 8.965124488E-01 7.080690935E-03 7.671362720E-03
 8.966405392E-01 7.024327293E-03 7.653333247E-03
 8.967686296E-01 6.967866793E-03 7.635345683E-03
 8.968966603E-01 6.911309436E-03 7.617400028E-03
 8.970246315E-01 6.854655687E-03 7.599495817E-03
 8.971525431E-01 6.797905546E-03 7.581633516E-03
 8.972804546E-01 6.741059478E-03 7.563812658E-03
 8.974083066E-01 6.684117485E-03 7.546032779E-03
 8.975360990E-01 6.627080496E-03 7.528293878E-03
 8.976638913E-01 6.569947582E-03 7.510596421E-03
 8.977915645E-01 6.512720603E-03 7.492939942E-03
 8.979192972E-01 6.455398630E-03 7.475324441E-03
 8.980469108E-01 6.397982128E-03 7.457749918E-03
 8.981745243E-01 6.340472028E-03 7.440216374E-03
 8.983020782E-01 6.282867864E-03 7.422723342E-03
 8.984295726E-01 6.225170102E-03 7.405271754E-03
 8.985570073E-01 6.167379208E-03 7.387861144E-03
 8.986844420E-01 6.109495647E-03 7.370491512E-03
 8.988118172E-01 6.051519420E-03 7.353163324E-03
 8.989391923E-01 5.993450526E-03 7.335876115E-03
 8.990665078E-01 5.935289897E-03 7.318629883E-03
 8.991937637E-01 5.877037067E-03 7.301425561E-03
 8.993209600E-01 5.818692967E-03 7.284262218E-03
 8.994480968E-01 5.760257598E-03 7.267140783E-03
 8.995752335E-01 5.701731425E-03 7.250061259E-03
 8.997023702E-01 5.643113982E-03 7.233023643E-03
 8.998293877E-01 5.584406666E-03 7.216027938E-03
 8.999564052E-01 5.525609013E-03 7.199074607E-03
 9.000833631E-01 5.466721486E-03 7.182163186E-03
 9.002102613E-01 5.407744553E-03 7.165294606E-03
 9.003371596E-01 5.348678213E-03 7.148468867E-03
 9.004639983E-01 5.289522465E-03 7.131685968E-03
 9.005908370E-01 5.230278242E-03 7.114946377E-03
 9.007175565E-01 5.170945544E-03 7.098249625E-03
 9.008442760E-01 5.111524835E-03 7.081597112E-03
 9.009709358E-01 5.052015651E-03 7.064987905E-03
 9.010975957E-01 4.992419388E-03 7.048422936E-03
 9.012241960E-01 4.932735581E-03 7.031902205E-03
 9.013507366E-01 4.872964229E-03 7.015425712E-03
 9.014772177E-01 4.813106265E-03 6.998994388E-03
 9.016036987E-01 4.753162153E-03 6.982608233E-03
 9.017301202E-01 4.693131428E-03 6.966267247E-03
 9.018565416E-01 4.633014556E-03 6.949971896E-03
 9.019829035E-01 4.572812002E-03 6.933722179E-03
 9.021092057E-01 4.512524232E-03 6.917519495E-03
 9.022354484E-01 4.452150781E-03 6.901362911E-03
 9.023616910E-01 4.391692579E-03 6.885252893E-03
 9.024878740E-01 4.331150092E-03 6.869190838E-03
 9.026139975E-01 4.270522855E-03 6.853175815E-03
 9.027401209E-01 4.209811334E-03 6.837209221E-03
 9.028661847E-01 4.149016459E-03 6.821290590E-03
 9.029921889E-01 4.088137764E-03 6.805420853E-03
 9.031181931E-01 4.027175717E-03 6.789600011E-03
 9.032440782E-01 3.966130782E-03 6.773828994E-03
 9.033700228E-01 3.905002959E-03 6.758107804E-03
 9.034958482E-01 3.843792714E-03 6.742437370E-03
 9.036216736E-01 3.782500047E-03 6.726817694E-03
 9.037474990E-01 3.721125657E-03 6.711249240E-03
 9.038732052E-01 3.659669543E-03 6.695732474E-03
 9.039989114E-01 3.598131938E-03 6.680268794E-03
 9.041245580E-01 3.536513308E-03 6.664857734E-03
 9.042502046E-01 3.474813886E-03 6.649500225E-03
 9.043757915E-01 3.413033672E-03 6.634196732E-03
 9.045013189E-01 3.351173131E-03 6.618948188E-03
 9.046268463E-01 3.289232496E-03 6.603755057E-03
 9.047523141E-01 3.227212233E-03 6.588617805E-03
 9.048777223E-01 3.165112110E-03 6.573537830E-03
 9.050031304E-01 3.102933057E-03 6.558515597E-03
 9.051284194E-01 3.040674841E-03 6.543552037E-03
 9.052537680E-01 2.978337929E-03 6.528648082E-03
 9.053789973E-01 2.915922552E-03 6.513804663E-03
 9.055042267E-01 2.853428945E-03 6.499022711E-03
 9.056294560E-01 2.790857339E-03 6.484304089E-03
 9.057545662E-01 2.728208201E-03 6.469650194E-03
 9.058797359E-01 2.665481530E-03 6.455061957E-03
 9.060047865E-01 2.602677792E-03 6.440542173E-03
 9.061298370E-01 2.539796988E-03 6.426091772E-03
 9.062548280E-01 2.476839814E-03 6.411712151E-03
 9.063797593E-01 2.413807204E-03 6.397405174E-03
 9.065046906E-01 2.350696363E-03 6.383182947E-03
 9.066295624E-01 2.287510317E-03 6.369047333E-03
 9.067544341E-01 2.224248601E-03 6.354976911E-03
 9.068792462E-01 2.160911681E-03 6.340946537E-03
 9.070039988E-01 2.097499324E-03 6.326947361E-03
 9.071286917E-01 2.034013392E-03 6.312978920E-03
 9.072533846E-01 1.970450860E-03 6.299043540E-03
 9.073780775E-01 1.906813472E-03 6.285140757E-03
 9.075026512E-01 1.843099948E-03 6.271271501E-03
 9.076272249E-01 1.779313316E-03 6.257434841E-03
 9.077517986E-01 1.715452294E-03 6.243632175E-03
 9.078762531E-01 1.651516883E-03 6.229863502E-03
 9.080007672E-01 1.587507315E-03 6.216128357E-03
 9.081251621E-01 1.523423824E-03 6.202426273E-03
 9.082495570E-01 1.459266408E-03 6.188757252E-03
 9.083738923E-01 1.395033323E-03 6.175120827E-03
 9.084982276E-01 1.330727944E-03 6.161516067E-03
 9.086225033E-01 1.266348991E-03 6.147942971E-03
 9.087467194E-01 1.201896695E-03 6.134401541E-03
 9.088708758E-01 1.137371291E-03 6.120891776E-03
 9.089950323E-01 1.072772662E-03 6.107413676E-03
 9.091191888E-01 1.008101273E-03 6.093965843E-03
 9.092432261E-01 9.433569503E-04 6.080549676E-03
 9.093673229E-01 8.785400423E-04 6.067163777E-03
 9.094913006E-01 8.136506658E-04 6.053808145E-03
 9.096152782E-01 7.486889372E-04 6.040482782E-03
 9.097391963E-01 6.836550310E-04 6.027188152E-03
 9.098631144E-01 6.185490056E-04 6.013923325E-03
 9.099869132E-01 5.533710937E-04 6.000688300E-03
 9.101107717E-01 4.881213827E-04 5.987483077E-03
 9.102345109E-01 4.228000471E-04 5.974307656E-03
 9.103582501E-01 3.574072325E-04 5.961161572E-03
 9.104819894E-01 2.919430553E-04 5.948045291E-03
 9.106056690E-01 2.264076757E-04 5.934958346E-03
 9.107292891E-01 1.608012390E-04 5.921900738E-03
 9.108528495E-01 9.512389079E-05 5.908872001E-03
 9.109764099E-01 2.937576210E-05 5.895873066E-03
 9.110999107E-01 -3.644300159E-05 5.882903002E-03
 9.112234116E-01 -1.023322548E-04 5.869961809E-03
 9.113468528E-01 -1.682918664E-04 5.857049953E-03
 9.114702344E-01 -2.343216765E-04 5.844166968E-03
 9.115936160E-01 -3.004215541E-04 5.831312854E-03
 9.117169380E-01 -3.665913537E-04 5.818487611E-03
 9.118402004E-01 -4.328309442E-04 5.805691704E-03
 9.119634628E-01 -4.991401802E-04 5.792924203E-03
 9.120866656E-01 -5.655188579E-04 5.780185573E-03
 9.122098684E-01 -6.319669774E-04 5.767475814E-03
 9.123330116E-01 -6.984842476E-04 5.754794925E-03
 9.124560952E-01 -7.650706102E-04 5.742143374E-03
 9.125791788E-01 -8.317259490E-04 5.729520228E-03
 9.127022028E-01 -8.984500309E-04 5.716925487E-03
 9.128251672E-01 -9.652427980E-04 5.704360083E-03
 9.129481316E-01 -1.032104017E-03 5.691823550E-03
 9.130710363E-01 -1.099033630E-03 5.679315887E-03
 9.131939411E-01 -1.166031463E-03 5.666837096E-03
 9.133167863E-01 -1.233097399E-03 5.654387176E-03
 9.134395719E-01 -1.300231321E-03 5.641966593E-03
 9.135623574E-01 -1.367432997E-03 5.629574414E-03
 9.136850834E-01 -1.434702426E-03 5.617211573E-03
 9.138077497E-01 -1.502039377E-03 5.604877602E-03
 9.139304161E-01 -1.569443615E-03 5.592572968E-03
 9.140530229E-01 -1.636915142E-03 5.580297206E-03
 9.141756296E-01 -1.704453840E-03 5.568050779E-03
 9.142981768E-01 -1.772059477E-03 5.555833690E-03
 9.144206643E-01 -1.839731936E-03 5.543645937E-03
 9.145431519E-01 -1.907470985E-03 5.531487055E-03
 9.146655798E-01 -1.975276740E-03 5.519357976E-03
 9.147879481E-01 -2.043148736E-03 5.507258698E-03
 9.149103165E-01 -2.111087320E-03 5.495188292E-03
 9.150326848E-01 -2.179091796E-03 5.483148154E-03
 9.151549339E-01 -2.247162163E-03 5.471137352E-03
 9.152771831E-01 -2.315298654E-03 5.459156353E-03
 9.153994322E-01 -2.383500803E-03 5.447205156E-03
 9.155215621E-01 -2.451768378E-03 5.435284227E-03
 9.156437516E-01 -2.520101378E-03 5.423393101E-03
 9.157658219E-01 -2.588499803E-03 5.411531776E-03
 9.158878922E-01 -2.656963421E-03 5.399701186E-03
 9.160099030E-01 -2.725491999E-03 5.387900863E-03
 9.161319137E-01 -2.794085536E-03 5.376130808E-03
 9.162538648E-01 -2.862743801E-03 5.364391487E-03
 9.163758159E-01 -2.931466559E-03 5.352682434E-03
 9.164977074E-01 -3.000254044E-03 5.341004580E-03
 9.166195393E-01 -3.069105558E-03 5.329357460E-03
 9.167413712E-01 -3.138021566E-03 5.317741539E-03
 9.168631434E-01 -3.207001369E-03 5.306156352E-03
 9.169848561E-01 -3.276045201E-03 5.294602830E-03
 9.171065688E-01 -3.345153062E-03 5.283080973E-03
 9.172282219E-01 -3.414324252E-03 5.271590315E-03
 9.173498750E-01 -3.483559005E-03 5.260131788E-03
 9.174714684E-01 -3.552857321E-03 5.248705391E-03
 9.175930023E-01 -3.622218734E-03 5.237310659E-03
 9.177145362E-01 -3.691643244E-03 5.225948524E-03
 9.178360701E-01 -3.761130851E-03 5.214619450E-03
 9.179574847E-01 -3.830681089E-03 5.203322507E-03
 9.180788994E-01 -3.900294192E-03 5.192058627E-03
 9.182003140E-01 -3.969969694E-03 5.180828273E-03
 9.183216095E-01 -4.039708059E-03 5.169631448E-03
 9.184429646E-01 -4.109508358E-03 5.158468615E-03
 9.185642004E-01 -4.179370590E-03 5.147340242E-03
 9.186854362E-01 -4.249295220E-03 5.136245862E-03
 9.188066721E-01 -4.319281783E-03 5.125186406E-03
 9.189277887E-01 -4.389328416E-03 5.114162341E-03
 9.190489650E-01 -4.459438846E-03 5.103175063E-03
 9.191700220E-01 -4.529610276E-03 5.092224106E-03
 9.192910790E-01 -4.599843174E-03 5.081310403E-03
 9.194121361E-01 -4.670137074E-03 5.070433952E-03
 9.195331335E-01 -4.740491975E-03 5.059595685E-03
 9.196540713E-01 -4.810907878E-03 5.048798863E-03
 9.197749496E-01 -4.881384782E-03 5.038046278E-03
 9.198958874E-01 -4.951922223E-03 5.027330015E-03
 9.200167060E-01 -5.022520199E-03 5.016641226E-03
 9.201375246E-01 -5.093178712E-03 5.005975720E-03
 9.202582836E-01 -5.163897760E-03 4.995333962E-03
 9.203790426E-01 -5.234676879E-03 4.984715488E-03
 9.204997420E-01 -5.305516534E-03 4.974120762E-03
 9.206203818E-01 -5.376416259E-03 4.963550251E-03
 9.207410216E-01 -5.447375588E-03 4.953003488E-03