VARIABLES = "N" "h=(1/N)^(1/2)" "CL" "CD" "CDp" "CDv" "CMy"
# not all values were reported by all codes
ZONE T="FUN3D, Family 1, SA-neg"
 5.980721000E+06 4.089059948E-04 3.779835939E+00 6.223639846E-02 5.288017169E-02 9.356234223E-03 -3.797503114E-01
 3.227904000E+06 5.565959727E-04 3.764501095E+00 6.322269142E-02 5.387501046E-02 9.347679093E-03 -3.776930869E-01
 1.679982000E+06 7.715210086E-04 3.747072935E+00 6.454163790E-02 5.521221831E-02 9.329427034E-03 -3.747817874E-01
 9.306710000E+05 1.036579954E-03 3.725524902E+00 6.555730850E-02 5.623747036E-02 9.319842793E-03 -3.709931076E-01
 5.080990000E+05 1.402899972E-03 3.685529947E+00 6.830327958E-02 5.903182924E-02 9.271450341E-03 -3.649953902E-01
 2.941610000E+05 1.843770035E-03 3.657196999E+00 7.059223950E-02 6.136377901E-02 9.228464216E-03 -3.609577119E-01
 1.739580000E+05 2.397610107E-03 3.573821068E+00 7.641898841E-02 6.728906929E-02 9.129925631E-03 -3.479188085E-01
zone, t="FUN3D, Family 1, SA-neg, 2nd order turbulence"
 5980721  4.08906e-4  0.3785475E+01  0.6215107E-01  0.5277600E-01  0.9375070E-02  -0.3807907E+00
 3227904  5.56596e-4  0.3772839E+01  0.6320216E-01  0.5382816E-01  0.9374006E-02  -0.3789304E+00
 1679982  7.71521e-4  0.3755291E+01  0.6435396E-01  0.5499206E-01  0.9361902E-02  -0.3762346E+00
  930671  1.03658e-3  0.3734381E+01  0.6540900E-01  0.5605145E-01  0.9357555E-02  -0.3725820E+00
  508099  1.40290e-3  0.3693399E+01  0.6824162E-01  0.5892221E-01  0.9319408E-02  -0.3664184E+00
  294161  1.84377e-3  0.3668150E+01  0.7041724E-01  0.6112268E-01  0.9294558E-02  -0.3628915E+00
  173958  2.39761e-3  0.3581023E+01  0.7649791E-01  0.6728478E-01  0.9213131E-02  -0.3492133E+00
ZONE T="FUN3D, Family 2, SA-neg"
 4792411  4.56797e-4  0.3790959E+01  0.6147182E-01  0.5212436E-01  0.9347458E-02  -0.3813406E+00
 2550989  6.26103e-4  0.3785353E+01  0.6166419E-01  0.5232537E-01  0.9338821E-02  -0.3804065E+00
 1353167  8.59655e-4  0.3781290E+01  0.6173888E-01  0.5240689E-01  0.9331991E-02  -0.3796410E+00
  740869  1.16179e-3  0.3773414E+01  0.6216101E-01  0.5284593E-01  0.9315081E-02  -0.3783043E+00
  379219  1.62388e-3  0.3756740E+01  0.6359680E-01  0.5430411E-01  0.9292695E-02  -0.3757889E+00
  246762  2.01308e-3  0.3736626E+01  0.6475984E-01  0.5549886E-01  0.9260977E-02  -0.3726151E+00
  134852  2.72315e-3  0.3686610E+01  0.6845021E-01  0.5927304E-01  0.9177174E-02  -0.3652266E+00
ZONE T="GGNS-Lift adapted"
 PASSIVEVARLIST=[7]
 1.912000000E+03 3.234231099E-02 2.117774487E+00 4.968771040E-01 4.924663007E-01 4.410800058E-03
 1.099400000E+04 1.348767616E-02 3.263220787E+00 1.129374877E-01 1.002122909E-01 1.272519957E-02
 2.182000000E+04 9.573872201E-03 3.709894419E+00 7.272365689E-02 6.267357618E-02 1.005008258E-02
 4.269600000E+04 6.844179705E-03 3.769912243E+00 6.597512215E-02 5.728205293E-02 8.693067357E-03
 8.454600000E+04 4.863718990E-03 3.790388107E+00 6.290816516E-02 5.373404175E-02 9.174123406E-03
 1.654900000E+05 3.476395039E-03 3.798403740E+00 6.158740819E-02 5.230236426E-02 9.285042994E-03
 3.287640000E+05 2.466453239E-03 3.801512003E+00 6.101091206E-02 5.168285966E-02 9.328054264E-03
 6.537980000E+05 1.749013667E-03 3.802299500E+00 6.077615917E-02 5.141367018E-02 9.362488985E-03
 1.223530000E+06 1.278520445E-03 3.802245378E+00 6.069915742E-02 5.130982772E-02 9.389328770E-03
 2.450584000E+06 9.034002433E-04 3.801950693E+00 6.067302451E-02 5.129848421E-02 9.374538437E-03
ZONE T="AHA adapted"
 PASSIVEVARLIST=[5-7]
 4.304000000E+03 1.524276938E-02 1.775933027E+00 4.876584411E-01
 6.690000000E+03 1.222607214E-02 1.736710191E+00 4.346374869E-01
 9.239000000E+03 1.040369272E-02 1.872338176E+00 3.838431835E-01
 1.240800000E+04 8.977369405E-03 3.417068720E+00 1.133312955E-01
 1.627100000E+04 7.839581929E-03 3.709489822E+00 7.551033795E-02
 2.137700000E+04 6.839535665E-03 3.761200428E+00 6.934330612E-02
 2.807500000E+04 5.968155339E-03 3.754243612E+00 6.637471914E-02
 3.623500000E+04 5.253344309E-03 3.777060986E+00 6.449792534E-02
 4.658900000E+04 4.632957280E-03 3.794001102E+00 6.339751929E-02
 6.006600000E+04 4.080239218E-03 3.804256201E+00 6.189011782E-02
 7.885700000E+04 3.561064834E-03 3.803566217E+00 6.137302518E-02
 1.021020000E+05 3.129557008E-03 3.804326773E+00 6.110735983E-02
 1.329240000E+05 2.742826240E-03 3.801833630E+00 6.095016375E-02
 1.688260000E+05 2.433774527E-03 3.802985191E+00 6.074418873E-02
 2.137100000E+05 2.163154772E-03 3.802783728E+00 6.066632643E-02
 2.729150000E+05 1.914195484E-03 3.802566767E+00 6.064259261E-02
 3.458040000E+05 1.700532739E-03 3.802744627E+00 6.061856821E-02
 4.348740000E+05 1.516415738E-03 3.801946640E+00 6.063936651E-02
 5.423330000E+05 1.357897534E-03 3.802237988E+00 6.060943007E-02
 6.779860000E+05 1.214477932E-03 3.802042484E+00 6.061768532E-02
 8.502490000E+05 1.084493473E-03 3.801973581E+00 6.061717123E-02
ZONE T="SANS-REFINE adapted"
 3.707800049E+03 1.642259769E-02 3.396282434E+00 1.264345646E-01 1.155917272E-01 1.263698563E-02 -3.390279114E-01
 6.924799805E+03 1.201700885E-02 3.653143883E+00 9.654311836E-02 8.623854816E-02 1.031699777E-02 -3.703653216E-01
 1.330009961E+04 8.671067655E-03 3.762264490E+00 7.384365052E-02 6.414514780E-02 9.707791731E-03 -3.809261322E-01
 2.579159961E+04 6.226741709E-03 3.793095827E+00 6.588102132E-02 5.649686605E-02 9.387052618E-03 -3.834026754E-01
 5.091310156E+04 4.431851674E-03 3.800543785E+00 6.272290647E-02 5.338331312E-02 9.340411052E-03 -3.835331500E-01
 1.006962031E+05 3.151326906E-03 3.802167892E+00 6.146185100E-02 5.211091414E-02 9.351061657E-03 -3.833220303E-01
 1.997792031E+05 2.237303182E-03 3.803071022E+00 6.089755893E-02 5.152574927E-02 9.371089749E-03 -3.832935989E-01
 3.913829062E+05 1.598450006E-03 3.803886414E+00 6.063763425E-02 5.125514790E-02 9.380285628E-03 -3.834109604E-01
ZONE T="WOLF-MS adapted"
 PASSIVEVARLIST=[7]
 4.957000000E+03 1.420334168E-02 2.237468004E+00 2.659372985E-01 2.654291987E-01 5.080944975E-04
 9.384000000E+03 1.032300200E-02 3.363446951E+00 8.922564983E-02 8.344431221E-02 5.781333894E-03
 1.927100000E+04 7.203571498E-03 3.697324038E+00 6.622116268E-02 5.727447942E-02 8.946686983E-03
 3.832100000E+04 5.108361132E-03 3.750670910E+00 6.160647050E-02 5.241354182E-02 9.192932397E-03
 7.617900000E+04 3.623116994E-03 3.769227982E+00 6.097001955E-02 5.168094859E-02 9.289066307E-03
 1.518210000E+05 2.566457493E-03 3.781975031E+00 6.123908982E-02 5.190426856E-02 9.334815666E-03
 3.018670000E+05 1.820087084E-03 3.789185047E+00 6.095289066E-02 5.158786848E-02 9.365024045E-03
 6.020760000E+05 1.288766856E-03 3.791088104E+00 6.103307009E-02 5.166098848E-02 9.372081608E-03
 1.189740000E+06 9.167986573E-04 3.792197943E+00 6.095686182E-02 5.158567056E-02 9.371189401E-03
 2.331785000E+06 6.548709935E-04 3.793231964E+00 6.097457930E-02 5.160877109E-02 9.365810081E-03
ZONE T="SFE-MS adapted"
 1.138000000E+03 2.964345925E-02 2.214078903E+00 2.757140994E-01 2.756646872E-01 4.943758177E-05 -2.340932935E-01
 3.622000000E+03 1.661597379E-02 1.995100975E+00 3.419005871E-01 3.414348066E-01 4.657423124E-04 -3.463731408E-01
 6.184000000E+03 1.271643117E-02 3.380949974E+00 9.225758910E-02 8.742828667E-02 4.829294980E-03 -3.205712438E-01
 1.161400000E+04 9.279169142E-03 3.701050997E+00 7.210887223E-02 6.365031749E-02 8.458551951E-03 -3.695294857E-01
 2.213600000E+04 6.721255835E-03 3.748032093E+00 6.500279158E-02 5.609982088E-02 8.902962320E-03 -3.755887449E-01
 4.348700000E+04 4.795349669E-03 3.793025970E+00 6.221156940E-02 5.301503837E-02 9.196533822E-03 -3.820115030E-01
 8.693500000E+04 3.391584614E-03 3.794848919E+00 6.171844900E-02 5.242121965E-02 9.297220968E-03 -3.821952641E-01
 1.699480000E+05 2.425727202E-03 3.799978018E+00 6.108184159E-02 5.173790082E-02 9.343938902E-03 -3.828594983E-01
 3.306410000E+05 1.739088329E-03 3.800376892E+00 6.084100902E-02 5.147117004E-02 9.369842708E-03 -3.827955127E-01
ZONE T="MIT:p1q1 adapted"
 3.073899902E+03 1.803661883E-02 3.535923004E+00 1.567367166E-01 1.462522149E-01 1.038323808E-02 -3.771941662E-01
 6.000200195E+03 1.290972903E-02 3.715800285E+00 9.703026712E-02 8.711172640E-02 9.955559857E-03 -3.828658760E-01
 1.177679980E+04 9.214809164E-03 3.773181915E+00 7.571818680E-02 6.630451977E-02 9.425100870E-03 -3.839588463E-01
 2.316350000E+04 6.570492405E-03 3.794390202E+00 6.673095375E-02 5.740877986E-02 9.325369261E-03 -3.840366602E-01
 4.591169922E+04 4.667005502E-03 3.800477743E+00 6.307271868E-02 5.374652520E-02 9.327330627E-03 -3.836554289E-01
 9.098929688E+04 3.315162612E-03 3.802137136E+00 6.161614880E-02 5.226837844E-02 9.348000400E-03 -3.833747506E-01
 1.812454062E+05 2.348910552E-03 3.802670956E+00 6.098188087E-02 5.161383003E-02 9.368106723E-03 -3.832163215E-01
 3.615770000E+05 1.663028146E-03 3.802835941E+00 6.071827561E-02 5.134277418E-02 9.375517257E-03 -3.831382990E-01
ZONE T="MIT:p1q3 adapted"
 PASSIVEVARLIST=[5-7]
 3.060100098E+03 1.807724312E-02 3.574694395E+00 1.388285905E-01
 5.991399902E+03 1.291920710E-02 3.715070009E+00 9.454368055E-02
 1.171770020E+04 9.238017723E-03 3.776351213E+00 7.548214495E-02
 2.312880078E+04 6.575419102E-03 3.795301676E+00 6.661136448E-02
 4.570219922E+04 4.677690100E-03 3.800455809E+00 6.302632391E-02
 9.095679688E+04 3.315754933E-03 3.802170753E+00 6.160100177E-02
 1.812405000E+05 2.348942449E-03 3.802685499E+00 6.097419932E-02
 3.619634062E+05 1.662140246E-03 3.802834272E+00 6.071695313E-02
ZONE T="MIT:p2q3 adapted"
 PASSIVEVARLIST=[5-7]
 6.410500000E+03 1.248975843E-02 3.767565489E+00 6.653796881E-02
 1.235490039E+04 8.996640332E-03 3.798788071E+00 6.178315356E-02
 2.400259961E+04 6.454622839E-03 3.802161455E+00 6.088599190E-02
 4.702519922E+04 4.611419979E-03 3.802696228E+00 6.061386317E-02
 9.240060156E+04 3.289747750E-03 3.802861452E+00 6.055175141E-02
 1.840390000E+05 2.331014955E-03 3.802908897E+00 6.053659692E-02
ZONE T="MIT:p3q3 adapted"
 PASSIVEVARLIST=[5-7]
 9.066700195E+03 1.050208136E-02 3.787362576E+00 6.276378781E-02
 1.723240039E+04 7.617756724E-03 3.801347017E+00 6.087918207E-02
 3.320680078E+04 5.487651099E-03 3.802693129E+00 6.057534367E-02
 6.446889844E+04 3.938445821E-03 3.802889824E+00 6.053889170E-02
 1.257183984E+05 2.820334164E-03 3.802929401E+00 6.053208187E-02
 2.484229062E+05 2.006338444E-03 3.802953005E+00 6.052994356E-02
