VARIABLES = "z/c","mu_t/mu_ref"
ZONE T="L5 FUN3D Family 1 main along x/c=0.4"
 Nodes=2068, Elements=2064, ZONETYPE=FELineSeg
 DATAPACKING=POINT
 DT=(SINGLE SINGLE )
 -9.999984741E+02 2.104520351E-01
 9.999984131E+02 2.104912847E-01
 6.016078591E-02 0.000000000E+00
 -4.299709573E-02 0.000000000E+00
 5.511576533E-01 2.011395842E-01
 5.560132265E-01 2.012229264E-01
 5.381515026E-01 2.009806484E-01
 5.752707124E-01 2.013278306E-01
 5.884706974E-01 2.014306039E-01
 5.705662370E-01 2.012545317E-01
 6.945226192E-01 2.020608187E-01
 6.688823700E-01 2.018432766E-01
 4.471744299E-01 2.000753731E-01
 4.322406054E-01 1.997648031E-01
 -8.627828956E-01 2.185057104E-01
 -8.512105346E-01 2.185862064E-01
 -8.340996504E-01 2.187440395E-01
 -5.552037358E-01 2.208486348E-01
 -5.398862362E-01 2.209942043E-01
 -5.574719906E-01 2.208193839E-01
 -3.690457046E-01 2.226136774E-01
 -2.888849974E-01 2.247976512E-01
 -3.014546633E-01 2.244394720E-01
 -1.167003989E+00 2.165725231E-01
 -1.216117740E+00 2.163670510E-01
 -1.221554518E+00 2.163174152E-01
 -2.878237069E-01 2.248223424E-01
 -2.869827151E-01 2.248736024E-01
 -2.766206861E-01 2.254755795E-01
 -1.350159049E+00 2.153828889E-01
 -1.339267373E+00 2.154714465E-01
 1.341521382E+00 2.053258866E-01
 1.327402115E+00 2.052166462E-01
 1.291466713E+00 2.048880607E-01
 -1.631340981E-01 2.295592278E-01
 -1.679173857E-01 2.290661186E-01
 1.803139448E-01 1.946426630E-01
 1.756549478E-01 1.945751160E-01
 2.476081848E+00 2.075823992E-01
 -2.512048244E+00 2.133182138E-01
 -2.472999573E+00 2.134444863E-01
 -2.516529560E+00 2.133067399E-01
 2.514521837E+00 2.076930702E-01
 2.534926653E+00 2.077407986E-01
 -1.016093567E-01 2.363802791E-01
 -1.013997570E-01 2.364038676E-01
 -1.043218076E-01 2.360542119E-01
 1.161822975E-01 1.994546056E-01
 1.185932085E-01 1.992436498E-01
 -9.940559417E-02 2.365618050E-01
 -7.022656500E-02 2.404226512E-01
 -7.107017934E-02 2.402644753E-01
 -6.992459297E-02 2.404923290E-01
 8.831295371E-02 8.121675873E+01
 8.700174093E-02 8.646640778E+01
 -5.507748947E-02 2.485798299E-01
 -5.573052540E-02 2.477615327E-01
 7.288780063E-02 1.583584442E+02
 7.227340341E-02 1.598234863E+02
 7.290819287E-02 1.583122101E+02
 7.298349589E-02 1.585554810E+02
 6.016338244E-02 1.318435898E-05
 -4.299969599E-02 4.544724561E-07
 -4.510372132E-02 1.109826756E+01
 -4.523272067E-02 9.616966248E+00
 -4.300245270E-02 8.170249203E-06
 -4.402222112E-02 1.666845703E+01
 -4.396174103E-02 1.649293137E+01
 6.016613916E-02 2.377350320E-04
 -4.321764037E-02 4.767296791E+00
 -4.320270196E-02 4.217322350E+00
 6.053794548E-02 4.301561356E+01
 6.051414460E-02 4.004362869E+01
 -4.348474741E-02 1.185929203E+01
 -4.351660609E-02 1.241052151E+01
 6.041388214E-02 2.766991425E+01
 6.043167040E-02 2.985163879E+01
 -4.300537705E-02 4.648592221E-05
 6.016905978E-02 1.357267261E-03
 -4.300847277E-02 1.651747443E-04
 6.017215922E-02 4.836942069E-03
 -4.301175848E-02 4.535215849E-04
 6.017544121E-02 1.330298465E-02
 -4.301523417E-02 1.057937392E-03
 6.017892063E-02 3.101849370E-02
 -4.301892594E-02 2.205259865E-03
 6.018260866E-02 6.444094330E-02
 -4.302283376E-02 4.232987296E-03
 6.018651649E-02 1.228162944E-01
 -4.302698001E-02 7.627661806E-03
 6.019066274E-02 2.186952084E-01
 -4.303137586E-02 1.307238266E-02
 6.019505486E-02 3.681031466E-01
 -4.303603247E-02 2.150380425E-02
 6.019971147E-02 5.898870230E-01
 -4.304096848E-02 3.417778015E-02
 6.020464748E-02 9.037787318E-01
 -4.304620251E-02 5.274079368E-02
 6.020987779E-02 1.327299356E+00
 -4.305174947E-02 7.930126041E-02
 6.021542475E-02 1.872444391E+00
 -4.305763170E-02 1.164901331E-01
 6.022130325E-02 2.543351412E+00
 -4.306386039E-02 1.674951613E-01
 6.022753567E-02 3.335779428E+00
 -4.307046905E-02 2.360476106E-01
 6.023414060E-02 4.238560677E+00
 -4.307747260E-02 3.263390064E-01
 6.024114043E-02 5.236469746E+00
 -4.308489710E-02 4.428509176E-01
 6.024856120E-02 6.313500404E+00
 -4.309276491E-02 5.900983810E-01
 6.025642902E-02 7.455586910E+00
 -4.310110584E-02 7.723106742E-01
 6.026476622E-02 8.652256966E+00
 -4.310994595E-02 9.930921793E-01
 6.027360633E-02 9.897201538E+00
 -4.311931878E-02 1.255116463E+00
 6.028297544E-02 1.118805218E+01
 -4.312925413E-02 1.559896588E+00
 6.029290706E-02 1.252575111E+01
 -4.313978180E-02 1.907660842E+00
 6.030343473E-02 1.391379356E+01
 -4.315094277E-02 2.297348976E+00
 6.031459570E-02 1.535753155E+01
 -4.316277802E-02 2.726718664E+00
 6.032642350E-02 1.686362648E+01
 6.035225093E-02 2.009374619E+01
 6.036633998E-02 2.183462334E+01
 6.033895910E-02 1.843963432E+01
 -4.317531735E-02 3.192545414E+00
 -4.318861291E-02 3.690879345E+00
 6.038127467E-02 2.367130089E+01
 6.039710343E-02 2.561315918E+01
 -4.325025901E-02 5.919933319E+00
 -4.323347285E-02 5.336271763E+00
 -4.326804727E-02 6.514299870E+00
 6.047050655E-02 3.463222122E+01
 6.045052037E-02 3.216878510E+01
 -4.328690469E-02 7.115773201E+00
 6.049168855E-02 3.725324631E+01
 -4.330689460E-02 7.721149921E+00
 -4.332808405E-02 8.327587128E+00
 -4.335054383E-02 8.932552338E+00
 -4.337435216E-02 9.533754349E+00
 6.056317315E-02 4.618193817E+01
 -4.339958355E-02 1.012906170E+01
 6.058992073E-02 4.955580139E+01
 -4.342633486E-02 1.071644115E+01
 6.061826646E-02 5.315087128E+01
 -4.345469177E-02 1.129387379E+01
 6.068016961E-02 6.106119919E+01
 6.064831838E-02 5.698120117E+01
 -4.358617589E-02 1.346086025E+01
 -4.355037957E-02 1.294522762E+01
 -4.362412170E-02 1.395462132E+01
 6.071392819E-02 6.540549469E+01
 -4.366434366E-02 1.442341805E+01
 6.074972078E-02 7.002884674E+01
 -4.370697960E-02 1.486382484E+01
 6.078765541E-02 7.494593811E+01
 -4.375217482E-02 1.527205753E+01
 6.082786992E-02 8.017121887E+01
 -4.380008206E-02 1.564393139E+01
 -4.385085776E-02 1.597483444E+01
 6.087049469E-02 8.571862793E+01
 -4.390468448E-02 1.625969124E+01
 6.091567501E-02 9.160135651E+01
 6.096357107E-02 9.783146667E+01
 6.101433933E-02 1.044196167E+02
 6.106815115E-02 1.113746490E+02
 -4.408632964E-02 1.677960205E+01
 6.112519279E-02 1.187032318E+02
 6.118565798E-02 1.264095001E+02
 -4.415428266E-02 1.681908417E+01
 6.124975160E-02 1.344947510E+02
 -4.422631860E-02 1.677897453E+01
 6.131768972E-02 1.429571381E+02
 6.138970330E-02 1.517915039E+02
 6.146603823E-02 1.609892426E+02
 -4.430266842E-02 1.665062904E+01
 6.154695153E-02 1.705382690E+02
 -4.438360408E-02 1.642463303E+01
 6.163272262E-02 1.804230042E+02
 6.172364205E-02 1.906244507E+02
 -4.446939379E-02 1.609069824E+01
 6.182001159E-02 2.011201935E+02
 -4.456033185E-02 1.563757420E+01
 6.192216277E-02 2.118845215E+02
 -4.465673119E-02 1.505286503E+01
 6.203044951E-02 2.228881683E+02
 -4.475890845E-02 1.432284737E+01
 6.214522570E-02 2.340982971E+02
 6.226689368E-02 2.454781036E+02
 -4.486721754E-02 1.343217945E+01
 -4.498202726E-02 1.236364651E+01
 6.239585951E-02 2.569863892E+02
 6.253256649E-02 2.685769043E+02
 -4.536945745E-02 7.908003807E+00
 6.267747283E-02 2.801977234E+02
 6.283107400E-02 2.917904053E+02
 -4.551440105E-02 5.991837978E+00
 -4.566803947E-02 3.985263348E+00
 -4.583089799E-02 2.187122822E+00
 6.299389154E-02 3.032889099E+02
 -4.600352794E-02 9.742926955E-01
 6.316647679E-02 3.146188660E+02
 -4.618651047E-02 4.251111746E-01
 6.334941834E-02 3.256962280E+02
 -4.638047889E-02 2.367955893E-01
 -4.658608139E-02 1.821995378E-01
 6.354334205E-02 3.364261475E+02
 -4.680402204E-02 1.717825979E-01
 6.374888867E-02 3.467019348E+02
 -4.703503847E-02 1.760563850E-01
 6.396678090E-02 3.564034119E+02
 -4.727991670E-02 1.850580573E-01
 6.419773400E-02 3.653956299E+02
 -4.753948376E-02 1.952942610E-01
 6.444255263E-02 3.735273132E+02
 6.470206380E-02 3.806290894E+02
 -4.781462625E-02 2.054785341E-01
 6.497713923E-02 3.865118103E+02
 6.280899644E-01 2.016821206E-01
 6.127010584E-01 2.015223503E-01
 6.068157554E-01 2.014634460E-01
 6.491090059E-01 2.017539591E-01
 5.242280960E-01 2.010345757E-01
 7.200269699E-01 2.021653950E-01
 7.253680825E-01 2.021918893E-01
 5.089408755E-01 2.009370625E-01
 4.929329753E-01 2.009111345E-01
 4.770997763E-01 2.005016059E-01
 7.455849648E-01 2.023002356E-01
 7.716361880E-01 2.024540901E-01
 4.619596303E-01 2.003560662E-01
 4.479337037E-01 2.000898570E-01
 7.984777689E-01 2.026096135E-01
 8.106436729E-01 2.026761621E-01
 8.259382248E-01 2.027599216E-01
 8.537561297E-01 2.028987110E-01
 -7.978080511E-01 2.188978344E-01
 -7.772417068E-01 2.188598216E-01
 -8.183075786E-01 2.188637257E-01
 4.192264080E-01 1.993915439E-01
 4.061639905E-01 1.990105957E-01
 -7.593241930E-01 2.188651562E-01
 -7.403889298E-01 2.188869715E-01
 -8.860702515E-01 2.179823071E-01
 -9.049624801E-01 2.179270834E-01
 8.839262724E-01 2.030179352E-01
 9.088305235E-01 2.030723840E-01
 3.933212459E-01 1.986956894E-01
 -7.252679467E-01 2.189095467E-01
 -7.096347213E-01 2.190008909E-01
 9.154472351E-01 2.030855417E-01
 -9.131543040E-01 2.179053873E-01
 3.808966279E-01 1.984096020E-01
 -6.912528872E-01 2.191688567E-01
 -6.812000275E-01 2.192973047E-01
 -9.435089827E-01 2.176856548E-01
 -9.685600400E-01 2.175650150E-01
 9.474831223E-01 2.031115741E-01
 3.688170016E-01 1.981135011E-01
 -9.778526425E-01 2.175244391E-01
 9.805723429E-01 2.031730562E-01
 1.011505127E+00 2.032680213E-01
 -6.572296023E-01 2.195588648E-01
 -6.533161402E-01 2.195992172E-01
 -6.251193285E-01 2.199091017E-01
 -1.014719248E+00 2.173673213E-01
 -1.024483085E+00 2.173012048E-01
 1.014827609E+00 2.032797933E-01
 -6.230041981E-01 2.199287713E-01
 -5.993520617E-01 2.201399803E-01
 3.572255671E-01 1.978153288E-01
 3.460310400E-01 1.975839734E-01
 -5.879556537E-01 2.202598602E-01
 -5.768442750E-01 2.203835547E-01
 -1.050706506E+00 2.170949578E-01
 1.050138712E+00 2.034307718E-01
 3.352266848E-01 1.973214298E-01
 -1.087212443E+00 2.168775499E-01
 -1.090315223E+00 2.168535590E-01
 -5.204565525E-01 2.211623788E-01
 1.086767912E+00 2.036081105E-01
 -5.130728483E-01 2.212489545E-01
 -4.983958304E-01 2.214238942E-01
 -4.779042304E-01 2.216900438E-01
 3.247997165E-01 1.970787346E-01
 1.124711037E+00 2.038084716E-01
 1.112879634E+00 2.037438899E-01
 -1.125402331E+00 2.165836841E-01
 -1.166191101E+00 2.165732980E-01
 -4.313810170E-01 2.227632254E-01
 -4.454483986E-01 2.223988473E-01
 -4.704568684E-01 2.218079418E-01
 -4.603494704E-01 2.219962627E-01
 1.163923860E+00 2.040335089E-01
 3.147348762E-01 1.968796998E-01
 3.046137094E-01 1.968173683E-01
 1.204617620E+00 2.042779624E-01
 -4.189285934E-01 2.228986025E-01
 -4.174914062E-01 2.229082137E-01
 -3.859874606E-01 2.226381153E-01
 -3.527943194E-01 2.226903737E-01
 -3.381448090E-01 2.228783667E-01
 -3.250410259E-01 2.231830359E-01
 -3.134362400E-01 2.236600667E-01
 2.949968576E-01 1.966319084E-01
 -4.020692110E-01 2.227177769E-01
 -1.251643181E+00 2.160324007E-01
 1.246006846E+00 2.045580447E-01
 1.224873543E+00 2.044159323E-01
 -2.690316439E-01 2.256501317E-01
 -1.292610526E+00 2.156072855E-01
 -1.296464205E+00 2.156006694E-01
 2.865195870E-01 1.964023411E-01
 -2.608627677E-01 2.260246128E-01
 -2.524280548E-01 2.263211310E-01
 2.778854668E-01 1.961687058E-01
 2.727304995E-01 1.960598528E-01
 2.694859207E-01 1.959912628E-01
 -1.374044895E+00 2.151896805E-01
 1.373261809E+00 2.054781020E-01
 2.613677979E-01 1.958110482E-01
 1.410460591E+00 2.056761533E-01
 -1.411170483E+00 2.149633765E-01
 -1.434314609E+00 2.148844004E-01
 1.413036108E+00 2.056886554E-01
 2.535553873E-01 1.956370026E-01
 1.450767636E+00 2.058848888E-01
 -1.450688720E+00 2.148264349E-01
 -2.442847788E-01 2.263402343E-01
 1.491486192E+00 2.060671598E-01
 1.508607745E+00 2.061124891E-01
 -2.364597470E-01 2.263068706E-01
 -2.289467156E-01 2.263353914E-01
 2.460494041E-01 1.953217089E-01
 -1.491250753E+00 2.147081494E-01
 -1.531868935E+00 2.146100551E-01
 -1.549318433E+00 2.145714611E-01
 1.532075167E+00 2.061674893E-01
 -2.217358947E-01 2.264804691E-01
 -2.148167342E-01 2.268650085E-01
 2.388429642E-01 1.950748414E-01
 2.319267392E-01 1.948073357E-01
 -2.081783861E-01 2.274711877E-01
 2.252910733E-01 1.947106421E-01
 1.572510719E+00 2.061966956E-01
 1.612945318E+00 2.062099576E-01
 -1.572454810E+00 2.145208716E-01
 -1.613011241E+00 2.144370824E-01
 1.618188500E+00 2.062106729E-01
 -2.018113285E-01 2.281064093E-01
 1.653303504E+00 2.062150389E-01
 -1.653569698E+00 2.143575400E-01
 -1.666732907E+00 2.143327594E-01
 1.693651080E+00 2.062157989E-01
 2.189263254E-01 1.946383566E-01
 2.128233016E-01 1.945347190E-01
 2.069731802E-01 1.945754886E-01
 -1.734271526E+00 2.142094821E-01
 -1.693960905E+00 2.142813057E-01
 1.733998895E+00 2.062281370E-01
 1.752954483E+00 2.062436938E-01
 -1.957055926E-01 2.284041792E-01
 -1.898532659E-01 2.284545600E-01
 1.774299026E+00 2.062635869E-01
 -1.774582028E+00 2.141411304E-01
 -1.790746689E+00 2.141149193E-01
 2.013679892E-01 1.945253760E-01
 -1.842456162E-01 2.287884057E-01
 -1.794236302E-01 2.290399075E-01
 -1.789204180E-01 2.290666401E-01
 1.814557076E+00 2.063193172E-01
 1.960050613E-01 1.944147050E-01
 -1.814808011E+00 2.140759081E-01
 -1.734157503E-01 2.289566845E-01
 1.854815125E+00 2.063864768E-01
 -1.854977250E+00 2.140128464E-01
 1.908406317E-01 1.944089085E-01
 -1.895146489E+00 2.139525861E-01
 -1.932960868E+00 2.138989866E-01
 1.895073175E+00 2.064615488E-01
 1.931527019E+00 2.065339983E-01
 1.857541054E-01 1.944860369E-01
 -1.935308099E+00 2.138956487E-01
 1.935302019E+00 2.065416574E-01
 -1.592425704E-01 2.296813875E-01
 -1.975346804E+00 2.138406634E-01
 1.975252151E+00 2.066237181E-01
 -1.554677188E-01 2.297199070E-01
 1.720034480E-01 1.943920255E-01
 -2.015385389E+00 2.137868404E-01
 2.015208483E+00 2.067063898E-01
 -1.514055133E-01 2.297901213E-01
 -2.055424213E+00 2.137369663E-01
 2.055139303E+00 2.067870051E-01
 -1.474580914E-01 2.300317138E-01
 1.683397293E-01 1.943673640E-01
 -2.095463037E+00 2.136898041E-01
 -2.098299026E+00 2.136865258E-01
 2.095097303E+00 2.068643272E-01
 1.645072252E-01 1.943251491E-01
 1.607001126E-01 1.942295581E-01
 -2.135390520E+00 2.136435658E-01
 2.135046721E+00 2.069380432E-01
 2.148028851E+00 2.069606334E-01
 -1.436415315E-01 2.302787155E-01
 -1.399579197E-01 2.304162830E-01
 1.570218801E-01 1.943196058E-01
 -2.175309181E+00 2.135964930E-01
 2.174986362E+00 2.070077807E-01
 1.534727663E-01 1.943614632E-01
 -2.215228081E+00 2.135535479E-01
 2.214923143E+00 2.070745081E-01
 -1.364047527E-01 2.304615676E-01
 -1.329779774E-01 2.304971963E-01
 -2.255146742E+00 2.135182768E-01
 -2.293054342E+00 2.134897560E-01
 2.254866600E+00 2.071401328E-01
 -2.295057058E+00 2.134882510E-01
 2.294825792E+00 2.072055489E-01
 1.500494629E-01 1.945139021E-01
 -1.296730936E-01 2.305781692E-01
 -1.264860630E-01 2.308000624E-01
 -2.334808350E+00 2.134625316E-01
 2.334815502E+00 2.072749734E-01
 1.467480361E-01 1.948277801E-01
 1.435642987E-01 1.950376332E-01
 -1.234199628E-01 2.311287522E-01
 -2.374580145E+00 2.134468108E-01
 2.376826048E+00 2.073546052E-01
 2.399095535E+00 2.074027956E-01
 1.404940635E-01 1.952334046E-01
 -1.204509884E-01 2.315066755E-01
 -2.421009541E+00 2.134389579E-01
 2.424373150E+00 2.074590623E-01
 -1.175782457E-01 2.319195122E-01
 1.375332475E-01 1.955835372E-01
 1.346885711E-01 1.958285272E-01
 1.319227815E-01 1.960814446E-01
 -1.148306876E-01 2.324075550E-01
 -1.121716574E-01 2.331174612E-01
 -2.546489954E+00 2.132201791E-01
 2.545495987E+00 2.077670097E-01
 2.577917814E+00 2.078670561E-01
 -2.578462362E+00 2.130986601E-01
 1.292644739E-01 1.963984817E-01
 1.267000288E-01 1.968604326E-01
 -1.096007526E-01 2.340071499E-01
 2.613355637E+00 2.079821527E-01
 1.242124140E-01 1.974879950E-01
 -1.070884541E-01 2.350263596E-01
 -2.613371372E+00 2.130322903E-01
 1.215225458E-01 1.983774751E-01
 2.653090239E+00 2.080766857E-01
 2.660578012E+00 2.080838233E-01
 -2.653106451E+00 2.129841596E-01
 -2.661321878E+00 2.129761130E-01
 -2.692804098E+00 2.129450291E-01
 2.692786932E+00 2.081120312E-01
 2.732474566E+00 2.081109732E-01
 -2.732492208E+00 2.129098922E-01
 -9.765720367E-02 2.363889366E-01
 2.772162437E+00 2.080923170E-01
 2.810546637E+00 2.080526799E-01
 -2.772180080E+00 2.128771842E-01
 -2.811206818E+00 2.128461003E-01
 -9.591863304E-02 2.361318916E-01
 2.811848640E+00 2.080512792E-01
 -2.811867714E+00 2.128455639E-01
 1.146258563E-01 2.005592138E-01
 1.129655242E-01 2.020080835E-01
 1.111377478E-01 2.040056288E-01
 -9.403432906E-02 2.357798219E-01
 2.851491928E+00 2.080025077E-01
 -2.851511240E+00 2.128151655E-01
 1.092236117E-01 2.074389458E-01
 -9.212520719E-02 2.355662435E-01
 2.891135454E+00 2.079652548E-01
 -2.891154766E+00 2.127854526E-01
 -9.027786553E-02 2.354754657E-01
 -2.930798292E+00 2.127565742E-01
 1.073775068E-01 2.134687901E-01
 2.930778980E+00 2.079487592E-01
 -8.849483728E-02 2.354923636E-01
 2.970422506E+00 2.079498321E-01
 2.978034258E+00 2.079522759E-01
 1.055973023E-01 2.237377316E-01
 -8.677486330E-02 2.356078923E-01
 3.010031939E+00 2.079633623E-01
 -2.978624821E+00 2.127227038E-01
 -2.970442057E+00 2.127283812E-01
 -3.010052443E+00 2.127008736E-01
 1.038802117E-01 2.440313846E-01
 -3.049654245E+00 2.126740366E-01
 3.049633503E+00 2.079852223E-01
 3.089235306E+00 2.080119550E-01
 -3.089256048E+00 2.126478255E-01
 1.022249088E-01 2.771585882E-01
 1.006280854E-01 3.713572323E-01
 -8.511612564E-02 2.357884943E-01
 -8.351659775E-02 2.362809777E-01
 9.908857197E-02 6.041712165E-01
 -3.128857851E+00 2.126222402E-01
 -3.166851759E+00 2.125982791E-01
 -8.197396249E-02 2.370171994E-01
 3.128836870E+00 2.080409974E-01
 3.166326284E+00 2.080693394E-01
 3.168436527E+00 2.080709338E-01
 -3.168458223E+00 2.125972658E-01
 -8.048635721E-02 2.378838211E-01
 3.207998514E+00 2.081010193E-01
 -3.208020687E+00 2.125728577E-01
 9.760385752E-02 1.228620887E+00
 9.617221355E-02 2.954397917E+00
 -7.905187458E-02 2.387859672E-01
 3.247560978E+00 2.081307620E-01
 -3.247583151E+00 2.125489861E-01
 -7.766845822E-02 2.395320237E-01
 3.287123442E+00 2.081599236E-01
 -3.287145853E+00 2.125256658E-01
 9.479128569E-02 6.848816872E+00
 -7.633605599E-02 2.399463505E-01
 3.326685667E+00 2.081884742E-01
 -3.326708078E+00 2.125028670E-01
 9.345947206E-02 1.326344490E+01
 -7.504484057E-02 2.398064435E-01
 3.366248131E+00 2.082163543E-01
 3.379582882E+00 2.082255185E-01
 -3.380039930E+00 2.124729902E-01
 -3.366270542E+00 2.124805897E-01
 9.217519313E-02 2.257480621E+01
 -7.380259037E-02 2.395220101E-01
 9.093695879E-02 3.618907547E+01
 3.405786037E+00 2.082435787E-01
 -3.405809164E+00 2.124587595E-01
 -7.252732664E-02 2.393592149E-01
 8.968387544E-02 5.562421036E+01
 3.445311546E+00 2.082701921E-01
 -3.445334911E+00 2.124374211E-01
 -3.484860659E+00 2.124165297E-01
 3.484837294E+00 2.082961798E-01
 8.619286120E-02 1.212375336E+02
 8.605209738E-02 1.253068314E+02
 -3.524386406E+00 2.123960853E-01
 -6.910037249E-02 2.404528260E-01
 3.524362803E+00 2.083215564E-01
 3.563888311E+00 2.083463520E-01
 -3.563912153E+00 2.123760730E-01
 8.534133434E-02 1.458807526E+02
 3.603413820E+00 2.083705813E-01
 3.623154640E+00 2.083824128E-01
 -6.821040064E-02 2.405622303E-01
 3.642922401E+00 2.083942741E-01
 -3.603437901E+00 2.123564780E-01
 -3.623531580E+00 2.123467177E-01
 -3.642946720E+00 2.123372704E-01
 8.437978476E-02 1.652322083E+02
 8.341921866E-02 1.776631775E+02
 -6.723576039E-02 2.404753119E-01
 -6.627416611E-02 2.404549271E-01
 3.682413816E+00 2.084174603E-01
 -3.682438135E+00 2.123184502E-01
 -6.534703821E-02 2.412295043E-01
 8.249306679E-02 1.836849976E+02
 3.721904993E+00 2.084401399E-01
 -3.721929789E+00 2.123000026E-01
 8.159959316E-02 1.846920319E+02
 3.761396408E+00 2.084623277E-01
 -3.761420965E+00 2.122819424E-01
 -6.445262581E-02 2.419496775E-01
 -6.358988583E-02 2.421710044E-01
 3.800887585E+00 2.084840238E-01
 -3.800912619E+00 2.122642100E-01
 8.073775470E-02 1.823612671E+02
 8.008281142E-02 1.794680023E+02
 -6.275846809E-02 2.417265028E-01
 -6.195606664E-02 2.407083213E-01
 7.990654558E-02 1.786893463E+02
 7.910498232E-02 1.758392792E+02
 3.840379000E+00 2.085052729E-01
 -3.840404034E+00 2.122468501E-01
 -3.879895449E+00 2.122298181E-01
 7.833213359E-02 1.766537323E+02
 -3.904317617E+00 2.122194767E-01
 3.879870415E+00 2.085260749E-01
 3.904036999E+00 2.085385323E-01
 -3.919374704E+00 2.122130990E-01
 -6.118240952E-02 2.395251393E-01
 7.758708298E-02 1.782120361E+02
 3.919349432E+00 2.085464299E-01
 3.958808899E+00 2.085663825E-01
 -3.958834410E+00 2.121967077E-01
 -6.043658033E-02 2.389623672E-01
 -5.971704423E-02 2.389520705E-01
 7.686828077E-02 1.790769348E+02
 3.998268604E+00 2.085859478E-01
 -3.998294115E+00 2.121806145E-01
 -5.902545527E-02 2.394664437E-01
 7.617490739E-02 1.783371277E+02
 4.037728310E+00 2.086050957E-01
 -5.835665762E-02 2.405186445E-01
 -4.037753582E+00 2.121648192E-01
 4.077187538E+00 2.086238712E-01
 -5.771131068E-02 2.411617935E-01
 7.550679147E-02 1.756616211E+02
 -4.077213287E+00 2.121493220E-01
 4.116647243E+00 2.086422741E-01
 7.486249506E-02 1.712480927E+02
 -5.708819255E-02 2.425368577E-01
 -4.116672993E+00 2.121341079E-01
 -4.156132698E+00 2.121191621E-01
 -5.645135045E-02 2.440414727E-01
 7.424059510E-02 1.658322449E+02
 4.156106472E+00 2.086603045E-01
 -4.195592403E+00 2.121044993E-01
 -4.231727600E+00 2.120912969E-01
 7.360846549E-02 1.605819550E+02
 4.195566654E+00 2.086779922E-01
 4.231557846E+00 2.086938322E-01
 4.235023499E+00 2.086953521E-01
 -4.235049248E+00 2.120900750E-01
 -4.274479866E+00 2.120759189E-01
 7.186551392E-02 1.690307617E+02
 4.274453640E+00 2.087123841E-01
 4.313883781E+00 2.087290734E-01
 -4.313910484E+00 2.120619863E-01
 -5.467107892E-02 2.502868474E-01
 4.353314400E+00 2.087454796E-01
 -4.353340626E+00 2.120483220E-01
 7.143230736E-02 1.833821106E+02
 7.094910741E-02 2.057217407E+02
 -5.379193276E-02 2.546096742E-01
 -5.425145477E-02 2.525035441E-01
 4.392744541E+00 2.087615728E-01
 -4.392770767E+00 2.120348662E-01
 -5.330929533E-02 2.555941045E-01
 7.046694309E-02 2.316598053E+02
 4.432174683E+00 2.087773681E-01
 7.000137120E-02 2.578828125E+02
 -5.284327269E-02 2.550128400E-01
 -4.432201385E+00 2.120216638E-01
 4.471604824E+00 2.087928802E-01
 4.511035442E+00 2.088081092E-01
 -4.471631527E+00 2.120086700E-01
 -4.511062145E+00 2.119958997E-01
 -5.197215453E-02 2.489691228E-01
 -5.239397287E-02 2.527049482E-01
 -5.196084455E-02 2.488689572E-01
 6.955250353E-02 2.827424011E+02
 6.911980361E-02 3.053998718E+02
 4.550465584E+00 2.088230550E-01
 -5.154339224E-02 2.444524169E-01
 -4.550492287E+00 2.119833380E-01
 4.589895725E+00 2.088377327E-01
 4.618437290E+00 2.088481784E-01
 6.870212406E-02 3.254974365E+02
 -5.114045739E-02 2.416093796E-01
 -4.589922428E+00 2.119709849E-01
 -4.618497372E+00 2.119621783E-01
 4.629318714E+00 2.088521719E-01
 6.829961389E-02 3.428675232E+02
 -4.629345894E+00 2.119588405E-01
 -4.668748856E+00 2.119468749E-01
 -5.075160414E-02 2.401242107E-01
 6.791114807E-02 3.575359192E+02
 6.753690541E-02 3.695539551E+02
 4.668722153E+00 2.088663727E-01
 -4.708152771E+00 2.119351029E-01
 -5.037698522E-02 2.396508455E-01
 4.708125591E+00 2.088803202E-01
 4.747529030E+00 2.088940144E-01
 6.717582047E-02 3.790568237E+02
 6.682744622E-02 3.861745911E+02
 -5.001552776E-02 2.396650761E-01
 -4.966680333E-02 2.394016832E-01
 -4.747555733E+00 2.119235098E-01
 -4.786959648E+00 2.119121104E-01
 -4.933040962E-02 2.379862666E-01
 4.786932468E+00 2.089074850E-01
 4.826335907E+00 2.089207321E-01
 -4.826363087E+00 2.119008899E-01
 6.649139524E-02 3.910467529E+02
 4.865739346E+00 2.089337558E-01
 6.616725773E-02 3.938154907E+02
 -4.900594428E-02 2.348111123E-01
 -4.869212955E-02 2.297402620E-01
 -4.865766525E+00 2.118898332E-01
 -4.905169964E+00 2.118789703E-01
 6.585375965E-02 3.946213074E+02
 6.554900110E-02 3.935752258E+02
 -4.838706926E-02 2.229252905E-01
 4.905142784E+00 2.089465559E-01
 -4.944573402E+00 2.118682563E-01
 6.525745988E-02 3.908257446E+02
 -4.809523374E-02 2.147457451E-01
 4.944546223E+00 2.089591473E-01
 4.983949661E+00 2.089715302E-01
 -4.983977318E+00 2.118577063E-01
 9.921444702E+02 2.104906589E-01
 -9.921445312E+02 2.104545981E-01
 9.843520508E+02 2.104896754E-01
 -9.843521118E+02 2.104568034E-01
 9.766207275E+02 2.104889303E-01
 -9.766207886E+02 2.104587108E-01
 9.689499512E+02 2.104882747E-01
 -9.689500122E+02 2.104604095E-01
 9.613393555E+02 2.104877383E-01
 -9.613394165E+02 2.104619145E-01
 9.537883911E+02 2.104872465E-01
 -9.537884521E+02 2.104632854E-01
 9.462966309E+02 2.104867995E-01
 -9.462966919E+02 2.104645073E-01
 9.388635864E+02 2.104863971E-01
 -9.388636475E+02 2.104656398E-01
 9.314888306E+02 2.104860097E-01
 -9.314888916E+02 2.104666680E-01
 9.241718750E+02 2.104856372E-01
 -9.241719360E+02 2.104676217E-01
 9.169122925E+02 2.104852945E-01
 -9.169123535E+02 2.104685009E-01
 9.097095947E+02 2.104849517E-01
 -9.097096558E+02 2.104693353E-01
 9.025634155E+02 2.104846239E-01
 -9.025634766E+02 2.104700953E-01
 8.954732056E+02 2.104843110E-01
 -8.954732666E+02 2.104708105E-01
 8.884386597E+02 2.104839981E-01
 -8.884386597E+02 2.104714811E-01
 8.814592285E+02 2.104837000E-01
 -8.814592285E+02 2.104721218E-01
 8.745344849E+02 2.104834169E-01
 -8.745345459E+02 2.104727179E-01
 8.676641235E+02 2.104831189E-01
 -8.676641235E+02 2.104732692E-01
 8.608475952E+02 2.104828358E-01
 -8.608475952E+02 2.104738057E-01
 8.540845337E+02 2.104825675E-01
 -8.540845337E+02 2.104743123E-01
 8.473744507E+02 2.104822844E-01
 -8.473745117E+02 2.104747891E-01
 8.407170410E+02 2.104820162E-01
 -8.407171021E+02 2.104752511E-01
 8.341118774E+02 2.104817480E-01
 -8.341118774E+02 2.104756832E-01
 8.275584717E+02 2.104814947E-01
 -8.275584717E+02 2.104761004E-01
 8.210564575E+02 2.104812264E-01
 -8.210565186E+02 2.104765028E-01
 8.146054688E+02 2.104809731E-01
 -8.146054688E+02 2.104768902E-01
 8.082050171E+02 2.104807198E-01
 -8.082050781E+02 2.104772478E-01
 8.018548584E+02 2.104804665E-01
 -8.018548584E+02 2.104776055E-01
 7.955544434E+02 2.104802132E-01
 -7.955545044E+02 2.104779333E-01
 7.893034668E+02 2.104799747E-01
 -7.893035278E+02 2.104782611E-01
 7.831015015E+02 2.104797363E-01
 -7.831015625E+02 2.104785740E-01
 7.769482422E+02 2.104794979E-01
 -7.769483032E+02 2.104788721E-01
 7.708432007E+02 2.104792595E-01
 -7.708432617E+02 2.104791701E-01
 7.647861328E+02 2.104790211E-01
 -7.647861328E+02 2.104794532E-01
 7.587764893E+02 2.104787827E-01
 -7.587765503E+02 2.104797214E-01
 7.528140259E+02 2.104785442E-01
 -7.528140869E+02 2.104799896E-01
 7.468983765E+02 2.104783207E-01
 -7.468984375E+02 2.104802430E-01
 7.410291138E+02 2.104780972E-01
 -7.410291748E+02 2.104804963E-01
 7.352058716E+02 2.104778588E-01
 -7.352059326E+02 2.104807347E-01
 7.294283447E+02 2.104776353E-01
 -7.294284058E+02 2.104809731E-01
 7.236961670E+02 2.104774117E-01
 -7.236962280E+02 2.104811966E-01
 7.180089722E+02 2.104771882E-01
 -7.180090332E+02 2.104814202E-01
 7.123663940E+02 2.104769647E-01
 -7.123663940E+02 2.104816437E-01
 7.067680664E+02 2.104767561E-01
 -7.067681274E+02 2.104818523E-01
 7.012136841E+02 2.104765326E-01
 -7.012137451E+02 2.104820609E-01
 6.957028809E+02 2.104763091E-01
 -6.957029419E+02 2.104822695E-01
 6.902353516E+02 2.104760855E-01
 -6.902354126E+02 2.104824632E-01
 6.848107300E+02 2.104758769E-01
 -6.848107910E+02 2.104826570E-01
 6.794286499E+02 2.104756683E-01
 -6.794287109E+02 2.104828507E-01
 6.740888672E+02 2.104754597E-01
 -6.740888672E+02 2.104830444E-01
 6.687908936E+02 2.104752511E-01
 -6.687909546E+02 2.104832232E-01
 6.635346069E+02 2.104750425E-01
 -6.635346069E+02 2.104834020E-01
 6.583195190E+02 2.104748338E-01
 -6.583195190E+02 2.104835808E-01
 6.531453247E+02 2.104746252E-01
 -6.531453857E+02 2.104837596E-01
 6.480118408E+02 2.104744315E-01
 -6.480118408E+02 2.104839236E-01
 6.429185791E+02 2.104742229E-01
 -6.429186401E+02 2.104841024E-01
 6.378652954E+02 2.104740143E-01
 -6.378653564E+02 2.104842663E-01
 6.328516846E+02 2.104738206E-01
 -6.328517456E+02 2.104844302E-01
 6.278774414E+02 2.104736120E-01
 -6.278775024E+02 2.104845941E-01
 6.229422607E+02 2.104734182E-01
 -6.229423218E+02 2.104847580E-01
 6.180458374E+02 2.104732245E-01
 -6.180458374E+02 2.104849219E-01
 6.131878052E+02 2.104730159E-01
 -6.131878662E+02 2.104850709E-01
 6.083679199E+02 2.104728222E-01
 -6.083679810E+02 2.104852349E-01
 6.035858765E+02 2.104726285E-01
 -6.035859375E+02 2.104853839E-01
 5.988413696E+02 2.104724348E-01
 -5.988414307E+02 2.104855478E-01
 5.941341553E+02 2.104722410E-01
 -5.941341553E+02 2.104856968E-01
 5.894638672E+02 2.104720473E-01
 -5.894638672E+02 2.104858458E-01
 5.848302002E+02 2.104718536E-01
 -5.848302612E+02 2.104859948E-01
 5.802329712E+02 2.104716599E-01
 -5.802330322E+02 2.104861438E-01
 5.756718140E+02 2.104714662E-01
 -5.756718750E+02 2.104862928E-01
 5.711464844E+02 2.104712725E-01
 -5.711465454E+02 2.104864419E-01
 5.666566772E+02 2.104710788E-01
 -5.666567383E+02 2.104865909E-01
 5.622021484E+02 2.104708999E-01
 -5.622021484E+02 2.104867250E-01
 5.577825928E+02 2.104707062E-01
 -5.577825928E+02 2.104868740E-01
 5.533977051E+02 2.104705125E-01
 -5.533977661E+02 2.104870230E-01
 5.490472412E+02 2.104703337E-01
 -5.490473022E+02 2.104871571E-01
 5.447310181E+02 2.104701400E-01
 -5.447310181E+02 2.104873061E-01
 5.404486084E+02 2.104699463E-01
 -5.404486694E+02 2.104874551E-01
 5.361998901E+02 2.104697675E-01
 -5.361998901E+02 2.104875892E-01
 5.319844971E+02 2.104695737E-01
 -5.319844971E+02 2.104877383E-01
 5.278021851E+02 2.104693949E-01
 -5.278022461E+02 2.104878724E-01
 5.236527710E+02 2.104692012E-01
 -5.236527710E+02 2.104880214E-01
 5.195358887E+02 2.104690224E-01
 -5.195359497E+02 2.104881555E-01
 5.154514160E+02 2.104688287E-01
 -5.154514160E+02 2.104883045E-01
 5.113989868E+02 2.104686499E-01
 -5.113990173E+02 2.104884386E-01
 5.073783875E+02 2.104684561E-01
 -5.073784180E+02 2.104885876E-01
 5.033893433E+02 2.104682773E-01
 -5.033893738E+02 2.104887366E-01
 4.994316406E+02 2.104680836E-01
 -4.994316711E+02 2.104888707E-01
 4.955050354E+02 2.104679048E-01
 -4.955050659E+02 2.104890049E-01
 4.916092529E+02 2.104677111E-01
 -4.916092834E+02 2.104891539E-01
 4.877440796E+02 2.104675323E-01
 -4.877441101E+02 2.104892880E-01
 4.839092712E+02 2.104673535E-01
 -4.839092712E+02 2.104894370E-01
 4.801045837E+02 2.104671597E-01
 -4.801045837E+02 2.104895711E-01
 4.763297424E+02 2.104669809E-01
 -4.763297729E+02 2.104897201E-01