# k-kL-MEAH2015 nondim eddy viscosity at x=29.2468
VARIABLES = "Y","Mu_tOverMu_inf"
ZONE T="CFL3D x=29.2468"
 3.411123063E-03 2.362014160E+02
 7.194691803E-03 2.362600098E+02
 1.127146557E-02 2.363744965E+02
 1.557622477E-02 2.365617065E+02
 2.005936019E-02 2.368430634E+02
 2.468227409E-02 2.372458344E+02
 2.941692434E-02 2.378042145E+02
 3.424183652E-02 2.385493164E+02
 3.914155811E-02 2.394936066E+02
 4.410411417E-02 2.406362000E+02
 4.912070185E-02 2.419741364E+02
 5.418433249E-02 2.435026093E+02
 5.928977951E-02 2.452155457E+02
 6.443272531E-02 2.471056519E+02
 6.960977614E-02 2.491648560E+02
 7.481803745E-02 2.513843384E+02
 8.005516976E-02 2.537548981E+02
 8.531908691E-02 2.562669678E+02
 9.060800821E-02 2.589108276E+02
 9.592031687E-02 2.616767578E+02
 1.012546197E-01 2.645551453E+02
 1.066095978E-01 2.675364685E+02
 1.119840965E-01 2.706115112E+02
 1.173770055E-01 2.737713928E+02
 1.227873415E-01 2.770075378E+02
 1.282141656E-01 2.803117981E+02
 1.336566061E-01 2.836763306E+02
 1.391138583E-01 2.870938416E+02
 1.445851475E-01 2.905574036E+02
 1.500697285E-01 2.940604858E+02
 1.555669606E-01 2.975970154E+02
 1.610761583E-01 3.011612854E+02
 1.665967256E-01 3.047479553E+02
 1.721280813E-01 3.083521423E+02
 1.776696742E-01 3.119692078E+02
 1.832209527E-01 3.155949097E+02
 1.887814403E-01 3.192252808E+02
 1.943506300E-01 3.228567505E+02
 1.999280900E-01 3.264858704E+02
 2.055133283E-01 3.301095581E+02
 2.111059576E-01 3.337249146E+02
 2.167055905E-01 3.373293457E+02
 2.223117799E-01 3.409203491E+02
 2.279241830E-01 3.444956970E+02
 2.335424274E-01 3.480533447E+02
 2.391662002E-01 3.515913696E+02
 2.447951138E-01 3.551079712E+02
 2.504288852E-01 3.586016235E+02
 2.560672164E-01 3.620708008E+02
 2.617097497E-01 3.655141602E+02
 2.673562467E-01 3.689304199E+02
 2.730064392E-01 3.723184814E+02
 2.786599994E-01 3.756772461E+02
 2.843166888E-01 3.790057678E+02
 2.899762690E-01 3.823031921E+02
 2.956385016E-01 3.855686951E+02
 3.013031185E-01 3.888015137E+02
 3.069699109E-01 3.920009766E+02
 3.126386404E-01 3.951664734E+02
 3.183091283E-01 3.982975159E+02
 3.239811063E-01 4.013934631E+02
 3.296544254E-01 4.044539490E+02
 3.353288770E-01 4.074785156E+02
 3.410042226E-01 4.104667664E+02
 3.466803133E-01 4.134183655E+02
 3.523569703E-01 4.163330383E+02
 3.580340445E-01 4.192105103E+02
 3.637112975E-01 4.220504761E+02
 3.693885803E-01 4.248527527E+02
 3.750658035E-01 4.276171570E+02
 3.807426989E-01 4.303434753E+02
 3.864191771E-01 4.330315857E+02
 3.920950890E-01 4.356813354E+02
 3.977702558E-01 4.382926636E+02
 4.034445286E-01 4.408654480E+02
 4.091178477E-01 4.433996277E+02
 4.147899747E-01 4.458951111E+02
 4.204608202E-01 4.483518677E+02
 4.261302650E-01 4.507698975E+02
 4.317981601E-01 4.531491394E+02
 4.374643862E-01 4.554895935E+02
 4.431288540E-01 4.577912903E+02
 4.487914145E-01 4.600541992E+02
 4.544518888E-01 4.622783813E+02
 4.601102769E-01 4.644638367E+02
 4.657664299E-01 4.666106567E+02
 4.714201987E-01 4.687188416E+02
 4.770715535E-01 4.707884827E+02
 4.827202857E-01 4.728195801E+02
 4.883664250E-01 4.748123169E+02
 4.940097332E-01 4.767666626E+02
 4.996501803E-01 4.786827393E+02
 5.052877665E-01 4.805606689E+02
 5.109221935E-01 4.824004517E+02
 5.165535212E-01 4.842022705E+02
 5.221816301E-01 4.859661865E+02
 5.278064013E-01 4.876923218E+02
 5.334277749E-01 4.893807983E+02
 5.390456915E-01 4.910317078E+02
 5.446600318E-01 4.926451721E+02
 5.502706766E-01 4.942212830E+02
 5.558776855E-01 4.957602539E+02
 5.614808202E-01 4.972621155E+02
 5.670800805E-01 4.987270203E+02
 5.726754069E-01 5.001551514E+02
 5.782667398E-01 5.015466003E+02
 5.838539600E-01 5.029015198E+02
 5.894370079E-01 5.042200012E+02
 5.950158238E-01 5.055022583E+02
 6.005902886E-01 5.067483826E+02
 6.061604023E-01 5.079585266E+02
 6.117261052E-01 5.091328735E+02
 6.172873378E-01 5.102715454E+02
 6.228439212E-01 5.113746338E+02
 6.283959150E-01 5.124423828E+02
 6.339432597E-01 5.134749756E+02
 6.394858360E-01 5.144724121E+02
 6.450235844E-01 5.154349976E+02
 6.505565047E-01 5.163627930E+02
 6.560845375E-01 5.172560425E+02
 6.616075039E-01 5.181147461E+02
 6.671254635E-01 5.189392700E+02
 6.726383567E-01 5.197296143E+02
 6.781460643E-01 5.204860229E+02
 6.836485863E-01 5.212086182E+02
 6.891458631E-01 5.218975830E+02
 6.946377754E-01 5.225531006E+02
 7.000490427E-01 5.231669922E+02
 7.053806782E-01 5.237409058E+02
 7.106338739E-01 5.242763062E+02
 7.158097029E-01 5.247747803E+02
 7.209092975E-01 5.252377319E+02
 7.259336114E-01 5.256665649E+02
 7.308837175E-01 5.260626221E+02
 7.357606888E-01 5.264273071E+02
 7.405655980E-01 5.267617188E+02
 7.452993393E-01 5.270671997E+02
 7.499630451E-01 5.273449097E+02
 7.545576096E-01 5.275959473E+02
 7.590839863E-01 5.278214111E+02
 7.635432482E-01 5.280223389E+02
 7.679362893E-01 5.281998291E+02
 7.722640038E-01 5.283548584E+02
 7.765273452E-01 5.284882812E+02
 7.807272077E-01 5.286010742E+02
 7.848646045E-01 5.286942139E+02
 7.889402509E-01 5.287684326E+02
 7.929551005E-01 5.288246460E+02
 7.969100475E-01 5.288635864E+02
 8.008058667E-01 5.288859863E+02
 8.046435118E-01 5.288927002E+02
 8.084237576E-01 5.288843994E+02
 8.121473789E-01 5.288617554E+02
 8.158152699E-01 5.288253784E+02
 8.194280863E-01 5.287760010E+02
 8.229868412E-01 5.287142334E+02
 8.264921308E-01 5.286406860E+02
 8.299447298E-01 5.285558472E+02
 8.333454132E-01 5.284603882E+02
 8.366950154E-01 5.283547363E+02
 8.399940729E-01 5.282394409E+02
 8.432435989E-01 5.281149902E+02
 8.464440107E-01 5.279819336E+02
 8.495962024E-01 5.278406372E+02
 8.527007103E-01 5.276915894E+02
 8.557584286E-01 5.275352173E+02
 8.587698936E-01 5.273719482E+02
 8.617358804E-01 5.272020874E+02
 8.646569252E-01 5.270261230E+02
 8.675336838E-01 5.268443604E+02
 8.703668714E-01 5.266572266E+02
 8.731570840E-01 5.264649658E+02
 8.759049177E-01 5.262679443E+02
 8.786110878E-01 5.260664673E+02
 8.812760115E-01 5.258608398E+02
 8.839004636E-01 5.256513672E+02
 8.864849806E-01 5.254382935E+02
 8.890300989E-01 5.252219238E+02
 8.915364146E-01 5.250024414E+02
 8.940044641E-01 5.247802734E+02
 8.964349031E-01 5.245554199E+02
 8.988281488E-01 5.243283081E+02
 9.011847973E-01 5.240989990E+02
 9.035054445E-01 5.238677979E+02
 9.057905078E-01 5.236348877E+02
 9.080405831E-01 5.234004517E+02
 9.102561474E-01 5.231646729E+02
 9.124376774E-01 5.229276733E+02
 9.145857692E-01 5.226897583E+02
 9.167007804E-01 5.224509888E+02
 9.187832475E-01 5.222115479E+02
 9.208336473E-01 5.219716187E+02
 9.228524566E-01 5.217312622E+02
 9.248401523E-01 5.214906616E+02
 9.267970920E-01 5.212499390E+02
 9.287239313E-01 5.210091553E+02
 9.306208491E-01 5.207686157E+02
 9.324885011E-01 5.205282593E+02
 9.343271852E-01 5.202882080E+02
 9.361373782E-01 5.200486450E+02
 9.379194975E-01 5.198096313E+02
 9.396739602E-01 5.195712891E+02
 9.414011240E-01 5.193336182E+02
 9.431014657E-01 5.190968018E+02
 9.447753429E-01 5.188608398E+02
 9.464231133E-01 5.186258545E+02
 9.480452538E-01 5.183919067E+02
 9.496420026E-01 5.181591187E+02
 9.512139559E-01 5.179274292E+02
 9.527612329E-01 5.176970215E+02
 9.542842507E-01 5.174678955E+02
 9.557834864E-01 5.172401733E+02
 9.572591782E-01 5.170137939E+02
 9.587117434E-01 5.167888794E+02
 9.601414800E-01 5.165654907E+02
 9.615487456E-01 5.163435669E+02
 9.629338980E-01 5.161232910E+02
 9.642971754E-01 5.159046021E+02
 9.656389952E-01 5.156875610E+02
 9.669596553E-01 5.154722290E+02
 9.682593942E-01 5.152586060E+02
 9.695386291E-01 5.150467529E+02
 9.707975984E-01 5.148366699E+02
 9.720366001E-01 5.146283569E+02
 9.732559919E-01 5.144218750E+02
 9.744559526E-01 5.142172241E+02
 9.756368399E-01 5.140144653E+02
 9.767989516E-01 5.138135376E+02
 9.779425263E-01 5.136145630E+02
 9.790679216E-01 5.134174805E+02
 9.801752567E-01 5.132222900E+02
 9.812649488E-01 5.130290527E+02
 9.823371768E-01 5.128377686E+02
 9.833921790E-01 5.126484375E+02
 9.844302535E-01 5.124610596E+02
 9.854517579E-01 5.122756348E+02
 9.864567518E-01 5.120921631E+02
 9.874455929E-01 5.119107056E+02
 9.884184599E-01 5.117312012E+02
 9.893756509E-01 5.115536804E+02
 9.903173447E-01 5.113781433E+02
 9.912438393E-01 5.112045593E+02
 9.921552539E-01 5.110329590E+02
 9.930518866E-01 5.108633423E+02
 9.939339757E-01 5.106957092E+02
 9.948017001E-01 5.105300293E+02
 9.956552982E-01 5.103663025E+02
 9.964950085E-01 5.102045288E+02
 9.973208904E-01 5.100447388E+02
 9.981333613E-01 5.098868713E+02
 9.989324808E-01 5.097309265E+02
 9.997184873E-01 5.095769348E+02
 1.000491500E+00 5.094248962E+02
 1.001251936E+00 5.092747192E+02
 1.001999736E+00 5.091264648E+02
 1.002735257E+00 5.089801025E+02
 1.003471375E+00 5.088330688E+02
 1.004227161E+00 5.086815491E+02
 1.005003214E+00 5.085253601E+02
 1.005800247E+00 5.083643188E+02
 1.006619096E+00 5.081981812E+02
 1.007460237E+00 5.080268555E+02
 1.008324623E+00 5.078500366E+02
 1.009212971E+00 5.076675415E+02
 1.010126352E+00 5.074790955E+02
 1.011065245E+00 5.072845154E+02
 1.012030721E+00 5.070834961E+02
 1.013023734E+00 5.068757629E+02
 1.014045238E+00 5.066610718E+02
 1.015096068E+00 5.064391479E+02
 1.016177177E+00 5.062096558E+02
 1.017289758E+00 5.059722595E+02
 1.018434882E+00 5.057266846E+02
 1.019613743E+00 5.054725342E+02
 1.020827293E+00 5.052094421E+02
 1.022076726E+00 5.049370422E+02
 1.023363590E+00 5.046549377E+02
 1.024688840E+00 5.043626709E+02
 1.026053905E+00 5.040598145E+02
 1.027459979E+00 5.037459717E+02
 1.028908730E+00 5.034205933E+02
 1.030401587E+00 5.030831604E+02
 1.031939864E+00 5.027331543E+02
 1.033525229E+00 5.023700256E+02
 1.035159469E+00 5.019931641E+02
 1.036844015E+00 5.016019592E+02
 1.038580537E+00 5.011958008E+02
 1.040371060E+00 5.007739563E+02
 1.042217255E+00 5.003357544E+02
 1.044121146E+00 4.998803711E+02
 1.046084523E+00 4.994071045E+02
 1.048109651E+00 4.989150696E+02
 1.050198555E+00 4.984033813E+02
 1.052353382E+00 4.978711548E+02
 1.054576278E+00 4.973174438E+02
 1.056869864E+00 4.967411194E+02
 1.059236288E+00 4.961412048E+02
 1.061678171E+00 4.955165405E+02
 1.064198136E+00 4.948659058E+02
 1.066798687E+00 4.941881104E+02
 1.069482565E+00 4.934818115E+02
 1.072252870E+00 4.927455750E+02
 1.075112343E+00 4.919779663E+02
 1.078064203E+00 4.911774292E+02
 1.081111312E+00 4.903423462E+02
 1.084257126E+00 4.894709778E+02
 1.087505102E+00 4.885614929E+02
 1.090858459E+00 4.876120300E+02
 1.094321012E+00 4.866205139E+02
 1.097896338E+00 4.855848389E+02
 1.101588488E+00 4.845027161E+02
 1.105401278E+00 4.833717651E+02
 1.109338760E+00 4.821895447E+02
 1.113405347E+00 4.809533081E+02
 1.117605448E+00 4.796602783E+02
 1.121943355E+00 4.783075562E+02
 1.126424074E+00 4.768918762E+02
 1.131052375E+00 4.754099731E+02
 1.135833144E+00 4.738584290E+02
 1.140771747E+00 4.722334290E+02
 1.145873427E+00 4.705311279E+02
 1.151143789E+00 4.687473755E+02
 1.156588554E+00 4.668777466E+02
 1.162213683E+00 4.649176331E+02
 1.168025374E+00 4.628620911E+02
 1.174029827E+00 4.607059631E+02
 1.180233836E+00 4.584437561E+02
 1.186643958E+00 4.560696411E+02
 1.193267107E+00 4.535775452E+02
 1.200110912E+00 4.509608154E+02
 1.207182527E+00 4.482126770E+02
 1.214489937E+00 4.453257446E+02
 1.222041011E+00 4.422922974E+02
 1.229843974E+00 4.391042786E+02
 1.237907529E+00 4.357528992E+02
 1.246240377E+00 4.322290649E+02
 1.254851818E+00 4.285229797E+02
 1.263751268E+00 4.246244507E+02
 1.272948623E+00 4.205225220E+02
 1.282453656E+00 4.162057495E+02
 1.292277098E+00 4.116618958E+02
 1.302429676E+00 4.068780518E+02
 1.312922716E+00 4.018404846E+02
 1.323767543E+00 3.965348511E+02
 1.334976077E+00 3.909458313E+02
 1.346561074E+00 3.850570374E+02
 1.358534694E+00 3.788516846E+02
 1.370910645E+00 3.723113708E+02
 1.383702397E+00 3.654169617E+02
 1.396924019E+00 3.581483459E+02
 1.410590172E+00 3.504840393E+02
 1.424715996E+00 3.424013977E+02
 1.439316869E+00 3.338767090E+02
 1.454409003E+00 3.248847961E+02
 1.470009208E+00 3.153991089E+02
 1.486134648E+00 3.053916931E+02
 1.502803087E+00 2.948332825E+02
 1.520033002E+00 2.836930847E+02
 1.537843466E+00 2.719388733E+02
 1.556254268E+00 2.595368958E+02
 1.575285554E+00 2.464521942E+02
 1.594958425E+00 2.326485291E+02
 1.615294933E+00 2.180884705E+02
 1.636317134E+00 2.027345734E+02
 1.658048749E+00 1.865487823E+02
 1.680513620E+00 1.694949799E+02
 1.703736663E+00 1.515402527E+02
 1.727743626E+00 1.326593781E+02
 1.752561212E+00 1.128451233E+02
 1.778216839E+00 9.214620972E+01
 1.804738879E+00 7.081924438E+01
 1.832156897E+00 4.977496719E+01
 1.860501170E+00 3.097310257E+01
 1.889803410E+00 1.654389381E+01
 1.920095921E+00 7.137867451E+00
 1.951412439E+00 2.161277294E+00
 1.983787656E+00 3.628494740E-01
 2.017257452E+00 2.149541676E-02
 2.051859379E+00 7.028869819E-03
 2.087631702E+00 6.856739055E-03
 2.124613762E+00 6.855457090E-03
 2.162847519E+00 6.855957676E-03
 2.202374935E+00 6.856470369E-03
 2.243240118E+00 6.856978405E-03
 2.285488605E+00 6.857481785E-03
 2.329167604E+00 6.857980043E-03
 2.374325275E+00 6.858473644E-03
 2.421012402E+00 6.858962588E-03
 2.469280958E+00 6.859446410E-03
 2.519184351E+00 6.859926041E-03
 2.570778847E+00 6.860401481E-03
 2.624121666E+00 6.860872731E-03
 2.679272413E+00 6.861339323E-03
 2.736292362E+00 6.861801725E-03
 2.795245886E+00 6.862260401E-03
 2.856198311E+00 6.862714887E-03
 2.919217825E+00 6.863164715E-03
 2.984375238E+00 6.863611285E-03
 3.051743031E+00 6.864053197E-03
 3.121397018E+00 6.864490453E-03
 3.193414927E+00 6.864923518E-03
 3.267877340E+00 6.865351461E-03
 3.344867945E+00 6.865774281E-03
 3.424473286E+00 6.866191514E-03
 3.506781816E+00 6.866602693E-03
 3.591886997E+00 6.867006887E-03
 3.679883957E+00 6.867404561E-03
 3.770871401E+00 6.867793854E-03
 3.864952087E+00 6.868174765E-03
 3.962231159E+00 6.868545897E-03
 4.062819004E+00 6.868906785E-03
 4.166828156E+00 6.869256962E-03
 4.274375916E+00 6.869595032E-03
 4.385583878E+00 6.869920064E-03
 4.500577450E+00 6.870231126E-03
 4.619486809E+00 6.870528217E-03
 4.742445469E+00 6.870809942E-03
 4.869592667E+00 6.871076766E-03
 5.001072884E+00 6.871326827E-03
 5.137034893E+00 6.871560588E-03
 5.277632236E+00 6.871777587E-03
 5.423024654E+00 6.871977821E-03
 5.573377132E+00 6.872160826E-03
 5.728860378E+00 6.872327998E-03
 5.889651299E+00 6.872478873E-03
 6.055932522E+00 6.872613914E-03
 6.227894306E+00 6.872734055E-03
 6.405731678E+00 6.872839294E-03
 6.589647770E+00 6.872931030E-03
 6.779852867E+00 6.873009726E-03
 6.976564407E+00 6.873076316E-03
 7.180006981E+00 6.873131264E-03
 7.390414238E+00 6.873175967E-03
 7.608026981E+00 6.873211358E-03
 7.833095074E+00 6.873237435E-03
 8.065877914E+00 6.873255596E-03
 8.306641579E+00 6.873266306E-03
 8.555665016E+00 6.873270497E-03
 8.813235283E+00 6.873268634E-03
 9.079649925E+00 6.873261184E-03
 9.355215073E+00 6.873249076E-03
 9.640253067E+00 6.873232313E-03
 9.935091972E+00 6.873211823E-03
 1.024007607E+01 6.873187609E-03
 1.055555820E+01 6.873160135E-03
 1.088190651E+01 6.873129867E-03
 1.121950340E+01 6.873096805E-03
 1.156874180E+01 6.873061415E-03
 1.193003178E+01 6.873023696E-03
 1.230379677E+01 6.872984581E-03
 1.269047642E+01 6.872943137E-03
 1.309052658E+01 6.872900296E-03
 1.350441933E+01 6.872856058E-03
 1.393264294E+01 6.872810423E-03
 1.437570858E+01 6.872763392E-03
 1.483413982E+01 6.872714963E-03
 1.530848598E+01 6.872665603E-03
 1.579931355E+01 6.872615777E-03
 1.630721092E+01 6.872564089E-03
 1.683278847E+01 6.872511934E-03
 1.737668228E+01 6.872459315E-03
 1.793955040E+01 6.872405764E-03
 1.852207756E+01 6.872351747E-03
 1.912497330E+01 6.872296799E-03
 1.974898148E+01 6.872241385E-03
 2.039486694E+01 6.872185506E-03
 2.106342888E+01 6.872129627E-03
 2.175550270E+01 6.872072816E-03
 2.247195435E+01 6.872016005E-03
 2.321368217E+01 6.871958729E-03
 2.398162651E+01 6.871900987E-03
 2.477676964E+01 6.871843711E-03
 2.560013199E+01 6.871785969E-03
 2.645277977E+01 6.871728227E-03
 2.733582878E+01 6.871670485E-03
 2.825044060E+01 6.871612743E-03
 2.919783592E+01 6.871555001E-03
 3.017928505E+01 6.871497724E-03
 3.119612694E+01 6.871440448E-03
 3.224975967E+01 6.871383637E-03
 3.334165573E+01 6.871326827E-03
 3.447335434E+01 6.871270947E-03
 3.564648056E+01 6.871215533E-03
 3.686274338E+01 6.871160120E-03
 3.812394714E+01 6.871105637E-03
 3.943199921E+01 6.871052086E-03
 4.078890228E+01 6.870999001E-03
 4.219678879E+01 6.870946847E-03
 4.365792465E+01 6.870895158E-03
 4.517469406E+01 6.870844867E-03
 4.674965286E+01 6.870795507E-03
 4.838551331E+01 6.870747078E-03
 5.008517838E+01 6.870700046E-03
 5.185173416E+01 6.870653946E-03
 5.368849564E+01 6.870608777E-03
 5.559900665E+01 6.870565470E-03
 5.758708191E+01 6.870523561E-03
 5.965679169E+01 6.870483048E-03
 6.181252670E+01 6.870443933E-03
 6.405897522E+01 6.870406680E-03
 6.640118408E+01 6.870371290E-03
 6.884449768E+01 6.870337762E-03
 7.139461517E+01 6.870306097E-03
 7.405745697E+01 6.870277226E-03
 7.683917236E+01 6.870250218E-03
 7.974582672E+01 6.870226003E-03
 8.278316498E+01 6.870204583E-03
 8.595601654E+01 6.870186422E-03
 8.926735687E+01 6.870171521E-03
 9.271705627E+01 6.870160345E-03
 9.629940033E+01 6.870153360E-03
 1.000000000E+02 0.000000000E+00
ZONE T="FUN3D, x=29.2468"
 1.705560018E-03 2.366880035E+02
 5.302910227E-03 2.367200012E+02
 9.233079851E-03 2.368000031E+02
 1.342379954E-02 2.369440002E+02
 1.781780086E-02 2.371699982E+02
 2.237080038E-02 2.375019989E+02
 2.704959922E-02 2.379720001E+02
 3.182940185E-02 2.386170044E+02
 3.669169918E-02 2.394589996E+02
 4.162279889E-02 2.405010071E+02
 4.661240056E-02 2.417380066E+02
 5.165249854E-02 2.431690063E+02
 5.673699826E-02 2.447870026E+02
 6.186119840E-02 2.465859985E+02
 6.702119857E-02 2.485590057E+02
 7.221390307E-02 2.506959991E+02
 7.743660361E-02 2.529889984E+02
 8.268710226E-02 2.554279938E+02
 8.796349913E-02 2.580050049E+02
 9.326410294E-02 2.607080078E+02
 9.858749807E-02 2.635289917E+02
 1.039320007E-01 2.664580078E+02
 1.092969999E-01 2.694849854E+02
 1.146809980E-01 2.726019897E+02
 1.200819984E-01 2.757999878E+02
 1.255010068E-01 2.790700073E+02
 1.309349984E-01 2.824049988E+02
 1.363849938E-01 2.857959900E+02
 1.418489963E-01 2.892369995E+02
 1.473270059E-01 2.927210083E+02
 1.528179944E-01 2.962409973E+02
 1.583220065E-01 2.997929993E+02
 1.638360023E-01 3.033689880E+02
 1.693619937E-01 3.069649963E+02
 1.748989969E-01 3.105769958E+02
 1.804450005E-01 3.141990051E+02
 1.860010028E-01 3.178280029E+02
 1.915660053E-01 3.214599915E+02
 1.971389949E-01 3.250920105E+02
 2.027209997E-01 3.287189941E+02
 2.083099931E-01 3.323399963E+02
 2.139060050E-01 3.359509888E+02
 2.195090055E-01 3.395499878E+02
 2.251179963E-01 3.431350098E+02
 2.307330072E-01 3.467019958E+02
 2.363539934E-01 3.502520142E+02
 2.419809997E-01 3.537799988E+02
 2.476119995E-01 3.572869873E+02
 2.532480061E-01 3.607690125E+02
 2.588880062E-01 3.642269897E+02
 2.645330131E-01 3.676579895E+02
 2.701810002E-01 3.710620117E+02
 2.758330107E-01 3.744360046E+02
 2.814880013E-01 3.777810059E+02
 2.871460021E-01 3.810960083E+02
 2.928070128E-01 3.843779907E+02
 2.984710038E-01 3.876289978E+02
 3.041360080E-01 3.908460083E+02
 3.098039925E-01 3.940299988E+02
 3.154740036E-01 3.971799927E+02
 3.211449981E-01 4.002940063E+02
 3.268179893E-01 4.033739929E+02
 3.324919939E-01 4.064169922E+02
 3.381659985E-01 4.094249878E+02
 3.438419998E-01 4.123959961E+02
 3.495190144E-01 4.153299866E+02
 3.551949859E-01 4.182269897E+02
 3.608730137E-01 4.210870056E+02
 3.665499985E-01 4.239089966E+02
 3.722270131E-01 4.266929932E+02
 3.779039979E-01 4.294389954E+02
 3.835810125E-01 4.321470032E+02
 3.892570138E-01 4.348169861E+02
 3.949329853E-01 4.374479980E+02
 4.006069899E-01 4.400400085E+02
 4.062809944E-01 4.425939941E+02
 4.119539857E-01 4.451099854E+02
 4.176250100E-01 4.475859985E+02
 4.232949913E-01 4.500239868E+02
 4.289639890E-01 4.524230042E+02
 4.346309900E-01 4.547829895E+02
 4.402959943E-01 4.571040039E+02
 4.459599853E-01 4.593869934E+02
 4.516209960E-01 4.616300049E+02
 4.572809935E-01 4.638349915E+02
 4.629380107E-01 4.660010071E+02
 4.685930014E-01 4.681289978E+02
 4.742459953E-01 4.702170105E+02
 4.798960090E-01 4.722680054E+02
 4.855430126E-01 4.742789917E+02
 4.911879897E-01 4.762520142E+02
 4.968299866E-01 4.781870117E+02
 5.024690032E-01 4.800830078E+02
 5.081049800E-01 4.819410095E+02
 5.137379766E-01 4.837609863E+02
 5.193669796E-01 4.855429993E+02
 5.249940157E-01 4.872879944E+02
 5.306169987E-01 4.889939880E+02
 5.362370014E-01 4.906619873E+02
 5.418530107E-01 4.922929993E+02
 5.474650264E-01 4.938869934E+02
 5.530740023E-01 4.954429932E+02
 5.586789846E-01 4.969620056E+02
 5.642799735E-01 4.984440002E+02
 5.698779821E-01 4.998890076E+02
 5.754709840E-01 5.012969971E+02
 5.810599923E-01 5.026679993E+02
 5.866450071E-01 5.040029907E+02
 5.922260284E-01 5.053009949E+02
 5.978029966E-01 5.065629883E+02
 6.033750176E-01 5.077890015E+02
 6.089429855E-01 5.089790039E+02
 6.145060062E-01 5.101319885E+02
 6.200649738E-01 5.112510071E+02
 6.256200075E-01 5.123330078E+02
 6.311690211E-01 5.133809814E+02
 6.367139816E-01 5.143930054E+02
 6.422539949E-01 5.153690186E+02
 6.477900147E-01 5.163109741E+02
 6.533200145E-01 5.172180176E+02
 6.588460207E-01 5.180910034E+02
 6.643660069E-01 5.189290161E+02
 6.698819995E-01 5.197319946E+02
 6.753919721E-01 5.205020142E+02
 6.808969975E-01 5.212369995E+02
 6.863970160E-01 5.219390259E+02
 6.918920279E-01 5.226069946E+02
 6.973429918E-01 5.232369995E+02
 7.027149796E-01 5.238259888E+02
 7.080069780E-01 5.243759766E+02
 7.132210135E-01 5.248880005E+02
 7.183589935E-01 5.253640137E+02
 7.234209776E-01 5.258049927E+02
 7.284079790E-01 5.262130127E+02
 7.333220243E-01 5.265880127E+02
 7.381629944E-01 5.269320068E+02
 7.429320216E-01 5.272470093E+02
 7.476310134E-01 5.275330200E+02
 7.522600293E-01 5.277919922E+02
 7.568200231E-01 5.280250244E+02
 7.613130212E-01 5.282329712E+02
 7.657390237E-01 5.284169922E+02
 7.700999975E-01 5.285780029E+02
 7.743949890E-01 5.287160034E+02
 7.786269784E-01 5.288339844E+02
 7.827960253E-01 5.289310303E+02
 7.869020104E-01 5.290089722E+02
 7.909470201E-01 5.290679932E+02
 7.949320078E-01 5.291099854E+02
 7.988579869E-01 5.291350098E+02
 8.027240038E-01 5.291439819E+02
 8.065329790E-01 5.291370239E+02
 8.102849722E-01 5.291160278E+02
 8.139809966E-01 5.290809937E+02
 8.176209927E-01 5.290319824E+02
 8.212069869E-01 5.289699707E+02
 8.247389793E-01 5.288969727E+02
 8.282179832E-01 5.288120117E+02
 8.316450119E-01 5.287160034E+02
 8.350200057E-01 5.286090088E+02
 8.383439779E-01 5.284929810E+02
 8.416180015E-01 5.283670044E+02
 8.448429704E-01 5.282319946E+02
 8.480200171E-01 5.280889893E+02
 8.511480093E-01 5.279379883E+02
 8.542289734E-01 5.277789917E+02
 8.572639823E-01 5.276140137E+02
 8.602520227E-01 5.274409790E+02
 8.631960154E-01 5.272620239E+02
 8.660950065E-01 5.270780029E+02
 8.689500093E-01 5.268870239E+02
 8.717619777E-01 5.266920166E+02
 8.745309711E-01 5.264910278E+02
 8.772580028E-01 5.262860107E+02
 8.799430132E-01 5.260770264E+02
 8.825880289E-01 5.258640137E+02
 8.851919770E-01 5.256469727E+02
 8.877570033E-01 5.254260254E+02
 8.902829885E-01 5.252030029E+02
 8.927699924E-01 5.249760132E+02
 8.952190280E-01 5.247470093E+02
 8.976309896E-01 5.245150146E+02
 9.000059962E-01 5.242819824E+02
 9.023450017E-01 5.240460205E+02
 9.046480060E-01 5.238079834E+02
 9.069150090E-01 5.235689697E+02
 9.091479778E-01 5.233289795E+02
 9.113460183E-01 5.230869751E+02
 9.135109782E-01 5.228439941E+02
 9.156429768E-01 5.226010132E+02
 9.177420139E-01 5.223560181E+02
 9.198079705E-01 5.221110229E+02
 9.218429923E-01 5.218660278E+02
 9.238460064E-01 5.216209717E+02
 9.258180261E-01 5.213750000E+02
 9.277600050E-01 5.211290283E+02
 9.296720028E-01 5.208839722E+02
 9.315540195E-01 5.206380005E+02
 9.334070086E-01 5.203930054E+02
 9.352319837E-01 5.201489868E+02
 9.370279908E-01 5.199050293E+02
 9.387959838E-01 5.196610107E+02
 9.405369759E-01 5.194180298E+02
 9.422510266E-01 5.191770020E+02
 9.439380169E-01 5.189359741E+02
 9.455990195E-01 5.186959839E+02
 9.472339749E-01 5.184569702E+02
 9.488430023E-01 5.182189941E+02
 9.504269958E-01 5.179829712E+02
 9.519870281E-01 5.177470093E+02
 9.535220265E-01 5.175130005E+02
 9.550330043E-01 5.172810059E+02
 9.565209746E-01 5.170499878E+02
 9.579849839E-01 5.168200073E+02
 9.594259858E-01 5.165919800E+02
 9.608449936E-01 5.163649902E+02
 9.622409940E-01 5.161400146E+02
 9.636150002E-01 5.159169922E+02
 9.649680257E-01 5.156959839E+02
 9.662989974E-01 5.154760132E+02
 9.676089883E-01 5.152579956E+02
 9.688990116E-01 5.150410156E+02
 9.701679945E-01 5.148270264E+02
 9.714170098E-01 5.146140137E+02
 9.726459980E-01 5.144039917E+02
 9.738550186E-01 5.141950073E+02
 9.750459790E-01 5.139879761E+02
 9.762169719E-01 5.137830200E+02
 9.773700237E-01 5.135800171E+02
 9.785050154E-01 5.133790283E+02
 9.796209931E-01 5.131790161E+02
 9.807199836E-01 5.129819946E+02
 9.818009734E-01 5.127869873E+02
 9.828640223E-01 5.125939941E+02
 9.839109778E-01 5.124030151E+02
 9.849410057E-01 5.122139893E+02
 9.859539866E-01 5.120269775E+02
 9.869509935E-01 5.118410034E+02
 9.879310131E-01 5.116579895E+02
 9.888970256E-01 5.114769897E+02
 9.898459911E-01 5.112980042E+02
 9.907799959E-01 5.111210022E+02
 9.916989803E-01 5.109469910E+02
 9.926030040E-01 5.107739868E+02
 9.934920073E-01 5.106029968E+02
 9.943670034E-01 5.104339905E+02
 9.952279925E-01 5.102669983E+02
 9.960749745E-01 5.101019897E+02
 9.969069958E-01 5.099400024E+02
 9.977269769E-01 5.097789917E+02
 9.985319972E-01 5.096199951E+02
 9.993249774E-01 5.094630127E+02
 1.000100017E+00 5.093080139E+02
 1.000869989E+00 5.091560059E+02
 1.001629949E+00 5.090050049E+02
 1.002370000E+00 5.088559875E+02
 1.003100038E+00 5.087070007E+02
 1.003849983E+00 5.085559998E+02
 1.004609942E+00 5.084010010E+02
 1.005399942E+00 5.082409973E+02
 1.006209970E+00 5.080750122E+02
 1.007040024E+00 5.079049988E+02
 1.007889986E+00 5.077290039E+02
 1.008769989E+00 5.075480042E+02
 1.009670019E+00 5.073609924E+02
 1.010599971E+00 5.071669922E+02
 1.011549950E+00 5.069679871E+02
 1.012529969E+00 5.067609863E+02
 1.013530016E+00 5.065480042E+02
 1.014569998E+00 5.063280029E+02
 1.015640020E+00 5.061000061E+02
 1.016729951E+00 5.058649902E+02
 1.017860055E+00 5.056220093E+02
 1.019019961E+00 5.053699951E+02
 1.020220041E+00 5.051090088E+02
 1.021450043E+00 5.048389893E+02
 1.022719979E+00 5.045599976E+02
 1.024029970E+00 5.042709961E+02
 1.025370002E+00 5.039710083E+02
 1.026759982E+00 5.036600037E+02
 1.028180003E+00 5.033389893E+02
 1.029649973E+00 5.030050049E+02
 1.031170011E+00 5.026589966E+02
 1.032729983E+00 5.022999878E+02
 1.034340024E+00 5.019280090E+02
 1.036000013E+00 5.015409851E+02
 1.037709951E+00 5.011400146E+02
 1.039479971E+00 5.007239990E+02
 1.041290045E+00 5.002909851E+02
 1.043169975E+00 4.998420105E+02
 1.045099974E+00 4.993750000E+02
 1.047099948E+00 4.988890076E+02
 1.049149990E+00 4.983850098E+02
 1.051280022E+00 4.978599854E+02
 1.053460002E+00 4.973139954E+02
 1.055719972E+00 4.967470093E+02
 1.058050036E+00 4.961560059E+02
 1.060459971E+00 4.955400085E+02
 1.062940001E+00 4.948999939E+02
 1.065500021E+00 4.942319946E+02
 1.068140030E+00 4.935369873E+02
 1.070870042E+00 4.928129883E+02
 1.073680043E+00 4.920580139E+02
 1.076589942E+00 4.912709961E+02
 1.079589963E+00 4.904500122E+02
 1.082679987E+00 4.895929871E+02
 1.085880041E+00 4.886990051E+02
 1.089179993E+00 4.877659912E+02
 1.092589974E+00 4.867919922E+02
 1.096109986E+00 4.857749939E+02
 1.099740028E+00 4.847130127E+02
 1.103489995E+00 4.836029968E+02
 1.107370019E+00 4.824419861E+02
 1.111369967E+00 4.812290039E+02
 1.115499973E+00 4.799609985E+02
 1.119770050E+00 4.786340027E+02
 1.124179959E+00 4.772460022E+02
 1.128739953E+00 4.757929993E+02
 1.133440018E+00 4.742730103E+02
 1.138299942E+00 4.726799927E+02
 1.143319964E+00 4.710130005E+02
 1.148509979E+00 4.692650146E+02
 1.153869987E+00 4.674349976E+02
 1.159399986E+00 4.655150146E+02
 1.165120006E+00 4.635029907E+02
 1.171030045E+00 4.613930054E+02
 1.177129984E+00 4.591789856E+02
 1.183439970E+00 4.568569946E+02
 1.189949989E+00 4.544190063E+02
 1.196689963E+00 4.518599854E+02
 1.203649998E+00 4.491730042E+02
 1.210839987E+00 4.463510132E+02
 1.218260050E+00 4.433859863E+02
 1.225939989E+00 4.402699890E+02
 1.233880043E+00 4.369949951E+02
 1.242069960E+00 4.335530090E+02
 1.250550032E+00 4.299330139E+02
 1.259299994E+00 4.261250000E+02
 1.268350005E+00 4.221189880E+02
 1.277699947E+00 4.179039917E+02
 1.287359953E+00 4.134679871E+02
 1.297350049E+00 4.087990112E+02
 1.307680011E+00 4.038819885E+02
 1.318339944E+00 3.987040100E+02
 1.329370022E+00 3.932500000E+02
 1.340770006E+00 3.875050049E+02
 1.352550030E+00 3.814509888E+02
 1.364719987E+00 3.750700073E+02
 1.377310038E+00 3.683450012E+02
 1.390310049E+00 3.612560120E+02
 1.403759956E+00 3.537810059E+02
 1.417649984E+00 3.458980103E+02
 1.432019949E+00 3.375849915E+02
 1.446859956E+00 3.288160095E+02
 1.462210059E+00 3.195660095E+02
 1.478070021E+00 3.098080139E+02
 1.494470000E+00 2.995119934E+02
 1.511420012E+00 2.886480103E+02
 1.528939962E+00 2.771860046E+02
 1.547049999E+00 2.650910034E+02
 1.565770030E+00 2.523289948E+02
 1.585119963E+00 2.388639984E+02
 1.605129957E+00 2.246589966E+02
 1.625810027E+00 2.096759949E+02
 1.647179961E+00 1.938760071E+02
 1.669280052E+00 1.772220001E+02
 1.692119956E+00 1.596770020E+02
 1.715739965E+00 1.412089996E+02
 1.740149975E+00 1.217979965E+02
 1.765390038E+00 1.014560013E+02
 1.791479945E+00 8.032070160E+01
 1.818449974E+00 5.897399902E+01
 1.846330047E+00 3.894699860E+01
 1.875149965E+00 2.239089966E+01
 1.904950023E+00 1.073159981E+01
 1.935750008E+00 3.901200056E+00
 1.967599988E+00 8.782250285E-01
 2.000519991E+00 8.781509846E-02
 2.034559965E+00 8.180130273E-03
 2.069740057E+00 6.868060213E-03
 2.106120110E+00 6.854290143E-03
 2.143729925E+00 6.854670122E-03
 2.182610035E+00 6.855189800E-03
 2.222810030E+00 6.855700165E-03
 2.264359951E+00 6.856210064E-03
 2.307329893E+00 6.856719963E-03
 2.351749897E+00 6.857220083E-03
 2.397670031E+00 6.857720204E-03
 2.445149899E+00 6.858210079E-03
 2.494230032E+00 6.858699955E-03
 2.544980049E+00 6.859180052E-03
 2.597450018E+00 6.859660149E-03
 2.651700020E+00 6.860139780E-03