# Convergence of drag with grid size
variables="N","h^2=1/N","h=sqrt(1/N)","C_L","C_D","C_Dp","C_Dv"
zone, t="CFL3D"
901120.  1.10973e-6  1.05344e-3  0.37350159880E-01  0.53585735788E-02  0.57254730021E-03  0.47860262786E-02
225280.  4.43892e-6  2.10687e-3  0.37257355806E-01  0.53646107250E-02  0.57620951832E-03  0.47884012066E-02
 56320.  1.77557e-5  4.21375e-3  0.37073552349E-01  0.53958224813E-02  0.60303169827E-03  0.47927907831E-02
 14080.  7.10227e-5  8.42750e-3  0.36659742342E-01  0.56078509745E-02  0.80564380326E-03  0.48022071712E-02
  3520.  2.84091e-4  1.68550e-2  0.35245747576E-01  0.70471877322E-02  0.22268215789E-02  0.48203661533E-02
zone, t="FUN3D"
901120.  1.10973e-6  1.05344e-3  0.3741234E-01  0.5341591E-02  0.5734680E-03  0.4768123E-02
225280.  4.43892e-6  2.10687e-3  0.3737169E-01  0.5334032E-02  0.5776083E-03  0.4756423E-02
 56320.  1.77557e-5  4.21375e-3  0.3726141E-01  0.5341039E-02  0.6029024E-03  0.4738137E-02
 14080.  7.10227e-5  8.42750e-3  0.3700153E-01  0.5473624E-02  0.7656070E-03  0.4708017E-02
  3520.  2.84091e-4  1.68550e-2  0.3623251E-01  0.6319011E-02  0.1653388E-02  0.4665623E-02

