# Convergence of drag with grid size
variables="N","h^2=1/N","h=sqrt(1/N)","C_D"
zone t="CFL3D"
208896.  4.78707e-6  2.18794e-3  0.57197057589E-02
 52224.  1.91483e-5  4.37588e-3  0.57226190163E-02
 13056.  7.65931e-5  8.75175e-3  0.57324183492E-02
  3264.  3.06373e-4  1.75035e-2  0.57687576958E-02
   816.  1.22549e-3  3.50070e-2  0.59087630413E-02
zone t="FUN3D"
208896.  4.78707e-6  2.18794e-3  0.5704938E-02
 52224.  1.91483e-5  4.37588e-3  0.5695865E-02
 13056.  7.65931e-5  8.75175e-3  0.5680089E-02
  3264.  3.06373e-4  1.75035e-2  0.5645282E-02
   816.  1.22549e-3  3.50070e-2  0.5547719E-02
