variables= "N","h","cd","cd_p","cd_v","mut_max"
zone t="CFL3D"
     2880  7.02861e-2      0.18536642020E-01  0.76668139231E-02  0.10869828097E-01  161.06
    23040  3.51430e-2      0.13089345775E-01  0.23748315464E-02  0.10714514228E-01  157.284
   184320  1.75715e-2      0.11584640955E-01  0.11651506112E-02  0.10419490344E-01  155.043
  1474560  8.78576e-3      0.11245000801E-01  0.95012645817E-03  0.10294874343E-01  155.237
 11796480  4.39288e-3      0.11176031386E-01  0.91348098728E-03  0.10262550399E-01  155.923
