# Convergence of Cp with grid size
variables="h","Cp"
ZONE T="CFL3D, x=0.25"
1.75715e-2 -5.461347699E-01
8.78576e-3 -5.562378168E-01
4.39288e-3 -5.583559871E-01
ZONE T="CFL3D, x=0.50"
1.75715e-2 -6.427431107E-01
8.78576e-3 -6.267363429E-01
4.39288e-3 -0.620637387050000
ZONE T="CFL3D, x=1.5"
1.75715e-2 -4.442763329E-02
8.78576e-3 -4.388737679E-02
4.39288e-3 -4.369729012E-02
