variables= "N","h","cd","cd_p","cd_v","mut_max"
zone t="FUN3D"
  2010998.  0.79225E-02   0.1258631124E-01   0.2257239302E-02  0.1032907193E-01  0.1554874031E+03
 15858075.  0.39803E-02   0.1154231381E-01   0.1269502424E-02  0.1027281139E-01  0.1553839032E+03
125946869.  0.19950E-02   0.1135194191E-01   0.1093169593E-02  0.1025877232E-01  0.1553480112E+03
