# Convergence of Cp with grid size
variables="h","Cp"
ZONE T="FUN3D, x=0.25"
0.79225E-02 -0.537744641304016113
0.39803E-02 -0.553612291812896729
0.19950E-02 -0.55602717399597168
ZONE T="FUN3D, x=0.50"
0.79225E-02  -0.622387137986854522
0.39803E-02 -0.615436011758052071
0.19950E-02 -0.614441096782684326
ZONE T="FUN3D, x=1.5"
0.79225E-02 -0.0427847280738664348
0.39803E-02 -0.042083449733672007
0.19950E-02 -0.0419531427323818207

