variables="u","distance","cp"
ZONE, t="USM3D, grid 1"
    0.000000000E+00    0.000000000E+00   -0.614661215E+00
    0.293317047E-12    0.901477049E-15   -0.614661215E+00
    0.328471894E-08    0.901539173E-11   -0.614661215E+00
    0.113632018E-01    0.311841431E-04   -0.614548960E+00
    0.113632400E-01    0.311842487E-04   -0.614548959E+00
    0.113632400E-01    0.311842487E-04   -0.614548959E+00
    0.113632400E-01    0.311842487E-04   -0.614548959E+00
    0.113632726E-01    0.311843578E-04   -0.614548959E+00
    0.211754385E-01    0.639539649E-04   -0.614560218E+00
    0.211754795E-01    0.639541031E-04   -0.614560218E+00
    0.211754795E-01    0.639541031E-04   -0.614560218E+00
    0.211754795E-01    0.639541031E-04   -0.614560218E+00
    0.211755261E-01    0.639542486E-04   -0.614560218E+00
    0.322724581E-01    0.983901264E-04   -0.614556907E+00
    0.322724916E-01    0.983902282E-04   -0.614556907E+00
    0.322724916E-01    0.983902282E-04   -0.614556907E+00
    0.322724916E-01    0.983902282E-04   -0.614556907E+00
    0.322725289E-01    0.983903301E-04   -0.614556907E+00
    0.447918512E-01    0.134576927E-03   -0.614557238E+00
    0.447919816E-01    0.134577305E-03   -0.614557238E+00
    0.447919816E-01    0.134577305E-03   -0.614557238E+00
    0.447919816E-01    0.134577305E-03   -0.614557238E+00
    0.447921306E-01    0.134577713E-03   -0.614557238E+00
    0.466459058E-01    0.139583557E-03   -0.614556894E+00
    0.554520041E-01    0.163363118E-03   -0.614555261E+00
    0.584568307E-01    0.171476175E-03   -0.614557120E+00
    0.588746220E-01    0.172604268E-03   -0.614557238E+00
    0.588746704E-01    0.172604399E-03   -0.614557238E+00
    0.588746704E-01    0.172604399E-03   -0.614557238E+00
    0.588746704E-01    0.172604399E-03   -0.614557238E+00
    0.588747226E-01    0.172604530E-03   -0.614557238E+00
    0.594134107E-01    0.173968860E-03   -0.614557101E+00
    0.673849583E-01    0.194158201E-03   -0.614555238E+00
    0.673860386E-01    0.194160035E-03   -0.614557059E+00
    0.746533349E-01    0.212564977E-03   -0.614556907E+00
    0.746533796E-01    0.212565093E-03   -0.614556907E+00
    0.746533796E-01    0.212565093E-03   -0.614556907E+00
    0.746533796E-01    0.212565093E-03   -0.614556907E+00
    0.746534318E-01    0.212565210E-03   -0.614556907E+00
    0.753261522E-01    0.214172324E-03   -0.614556723E+00
    0.869838446E-01    0.242022186E-03   -0.614553536E+00
    0.920243934E-01    0.254062412E-03   -0.614554897E+00
    0.922317058E-01    0.254557643E-03   -0.614554920E+00
    0.922317281E-01    0.254557701E-03   -0.614554920E+00
    0.922317281E-01    0.254557701E-03   -0.614554920E+00
    0.922317281E-01    0.254557701E-03   -0.614554920E+00
    0.922317505E-01    0.254557759E-03   -0.614554920E+00
    0.111647494E+00    0.298684812E-03   -0.614551277E+00
    0.111647800E+00    0.298685511E-03   -0.614551277E+00
    0.111647800E+00    0.298685511E-03   -0.614551277E+00
    0.111647800E+00    0.298685511E-03   -0.614551277E+00
    0.111648135E+00    0.298686238E-03   -0.614551277E+00
    0.132820040E+00    0.345056847E-03   -0.614544655E+00
    0.132820100E+00    0.345056993E-03   -0.614544655E+00
    0.132820100E+00    0.345056993E-03   -0.614544655E+00
    0.132820100E+00    0.345056993E-03   -0.614544655E+00
    0.132820159E+00    0.345057139E-03   -0.614544655E+00
    0.139885828E+00    0.360248901E-03   -0.614541145E+00
    0.139885873E+00    0.360250415E-03   -0.614539169E+00
    0.153684825E+00    0.389918190E-03   -0.614534062E+00
    0.155483857E+00    0.393786089E-03   -0.614533396E+00
    0.155484006E+00    0.393786409E-03   -0.614533396E+00
    0.155484006E+00    0.393786409E-03   -0.614533396E+00
    0.155484006E+00    0.393786409E-03   -0.614533396E+00
    0.155484155E+00    0.393786729E-03   -0.614533396E+00
    0.157442510E+00    0.398024480E-03   -0.614531743E+00
    0.172465101E+00    0.430532265E-03   -0.614519064E+00
    0.172466487E+00    0.430533721E-03   -0.614521039E+00
    0.179148942E+00    0.444993464E-03   -0.614516177E+00
    0.179149002E+00    0.444993610E-03   -0.614516177E+00
    0.179149002E+00    0.444993610E-03   -0.614516177E+00
    0.179149002E+00    0.444993610E-03   -0.614516177E+00
    0.179149061E+00    0.444993755E-03   -0.614516177E+00
    0.203125715E+00    0.498804322E-03   -0.614492335E+00
    0.203125805E+00    0.498804497E-03   -0.614492335E+00
    0.203125805E+00    0.498804497E-03   -0.614492335E+00
    0.203125805E+00    0.498804497E-03   -0.614492335E+00
    0.203125894E+00    0.498804729E-03   -0.614492335E+00
    0.226658776E+00    0.555351435E-03   -0.614459552E+00
    0.226658806E+00    0.555351493E-03   -0.614459552E+00
    0.226658806E+00    0.555351493E-03   -0.614459552E+00
    0.226658806E+00    0.555351493E-03   -0.614459552E+00
    0.226658836E+00    0.555351551E-03   -0.614459552E+00
    0.226903543E+00    0.555999170E-03   -0.614459062E+00
    0.230729356E+00    0.566125324E-03   -0.614450135E+00
    0.247371301E+00    0.610161864E-03   -0.614421491E+00
    0.249114081E+00    0.614773482E-03   -0.614418492E+00
    0.249114200E+00    0.614773773E-03   -0.614418492E+00
    0.249114200E+00    0.614773773E-03   -0.614418492E+00
    0.249114200E+00    0.614773773E-03   -0.614418492E+00
    0.249114305E+00    0.614774122E-03   -0.614418491E+00
    0.250252098E+00    0.618157792E-03   -0.614415469E+00
    0.261118233E+00    0.650472939E-03   -0.614386609E+00
    0.269358158E+00    0.674973649E-03   -0.614367910E+00
    0.270112723E+00    0.677217380E-03   -0.614366172E+00
    0.270112813E+00    0.677217613E-03   -0.614366172E+00
    0.270112813E+00    0.677217613E-03   -0.614366172E+00
    0.270112813E+00    0.677217613E-03   -0.614366172E+00
    0.270112902E+00    0.677217846E-03   -0.614366172E+00
    0.289543062E+00    0.742836273E-03   -0.614303918E+00
    0.289543092E+00    0.742836390E-03   -0.614303918E+00
    0.289543092E+00    0.742836390E-03   -0.614303918E+00
    0.289543092E+00    0.742836390E-03   -0.614303918E+00
    0.289543122E+00    0.742836564E-03   -0.614303918E+00
    0.294189125E+00    0.760691415E-03   -0.614285055E+00
    0.294188678E+00    0.760693219E-03   -0.614283084E+00
    0.305997342E+00    0.806071330E-03   -0.614236891E+00
    0.307485878E+00    0.811791397E-03   -0.614231068E+00
    0.307485998E+00    0.811791804E-03   -0.614231068E+00
    0.307485998E+00    0.811791804E-03   -0.614231068E+00
    0.307485998E+00    0.811791804E-03   -0.614231068E+00
    0.307486117E+00    0.811792270E-03   -0.614231067E+00
    0.308395952E+00    0.815755513E-03   -0.614226270E+00
    0.314375341E+00    0.841801055E-03   -0.614194743E+00
    0.322647959E+00    0.877829094E-03   -0.614154420E+00
    0.324122965E+00    0.884252659E-03   -0.614147291E+00
    0.324123114E+00    0.884253299E-03   -0.614147290E+00
    0.324123114E+00    0.884253299E-03   -0.614147290E+00
    0.324123114E+00    0.884253299E-03   -0.614147290E+00
    0.324123263E+00    0.884253997E-03   -0.614147289E+00
    0.325631350E+00    0.891642121E-03   -0.614137835E+00
    0.334091365E+00    0.933086034E-03   -0.614085358E+00
    0.338987321E+00    0.957065960E-03   -0.614056875E+00
    0.339667797E+00    0.960398873E-03   -0.614052917E+00
    0.339667887E+00    0.960399280E-03   -0.614052916E+00
    0.339667887E+00    0.960399280E-03   -0.614052916E+00
    0.339667887E+00    0.960399280E-03   -0.614052916E+00
    0.339667946E+00    0.960399688E-03   -0.614052916E+00
    0.354327560E+00    0.104041677E-02   -0.613948277E+00
    0.354327589E+00    0.104041700E-02   -0.613948277E+00
    0.354327589E+00    0.104041700E-02   -0.613948277E+00
    0.354327589E+00    0.104041700E-02   -0.613948277E+00
    0.354327619E+00    0.104041724E-02   -0.613948277E+00
    0.368286640E+00    0.112450356E-02   -0.613833373E+00
    0.368286699E+00    0.112450402E-02   -0.613833373E+00
    0.368286699E+00    0.112450402E-02   -0.613833373E+00
    0.368286699E+00    0.112450402E-02   -0.613833373E+00
    0.368286759E+00    0.112450449E-02   -0.613833372E+00
    0.372206569E+00    0.115032284E-02   -0.613796702E+00
    0.372206360E+00    0.115032541E-02   -0.613795554E+00
    0.379793525E+00    0.120029692E-02   -0.613725330E+00
    0.381701827E+00    0.121286488E-02   -0.613707873E+00
    0.381702006E+00    0.121286605E-02   -0.613707872E+00
    0.381702006E+00    0.121286605E-02   -0.613707872E+00
    0.381702006E+00    0.121286605E-02   -0.613707872E+00
    0.381702155E+00    0.121286721E-02   -0.613707870E+00
    0.383237481E+00    0.122383295E-02   -0.613691483E+00
    0.389343292E+00    0.126744155E-02   -0.613626657E+00
    0.389344692E+00    0.126744539E-02   -0.613628264E+00
    0.394704282E+00    0.130572019E-02   -0.613572438E+00
    0.394704402E+00    0.130572100E-02   -0.613572437E+00
    0.394704402E+00    0.130572100E-02   -0.613572437E+00
    0.394704402E+00    0.130572100E-02   -0.613572437E+00
    0.394704521E+00    0.130572182E-02   -0.613572435E+00
    0.395616561E+00    0.131273200E-02   -0.613561639E+00
    0.399630427E+00    0.134358287E-02   -0.613514128E+00
    0.405710489E+00    0.139030220E-02   -0.613445141E+00
    0.407401532E+00    0.140329555E-02   -0.613426076E+00
    0.407401711E+00    0.140329695E-02   -0.613426074E+00
    0.407401711E+00    0.140329695E-02   -0.613426074E+00
    0.407401711E+00    0.140329695E-02   -0.613426074E+00
    0.407401890E+00    0.140329835E-02   -0.613426072E+00
    0.419882238E+00    0.150583440E-02   -0.613269116E+00
    0.419882298E+00    0.150583498E-02   -0.613269115E+00
    0.419882298E+00    0.150583498E-02   -0.613269115E+00
    0.419882298E+00    0.150583498E-02   -0.613269115E+00
    0.419882357E+00    0.150583556E-02   -0.613269114E+00
    0.420688093E+00    0.151287392E-02   -0.613257907E+00
    0.427826315E+00    0.157522724E-02   -0.613159183E+00
    0.431865007E+00    0.161049573E-02   -0.613105290E+00
    0.432218969E+00    0.161358668E-02   -0.613100567E+00
    0.432218999E+00    0.161358702E-02   -0.613100566E+00
    0.432218999E+00    0.161358702E-02   -0.613100566E+00
    0.432218999E+00    0.161358702E-02   -0.613100566E+00
    0.432219028E+00    0.161358737E-02   -0.613100566E+00
    0.432566285E+00    0.161679706E-02   -0.613095340E+00
    0.436025381E+00    0.164876948E-02   -0.613043283E+00
    0.443444610E+00    0.171732809E-02   -0.612934984E+00
    0.444471419E+00    0.172681618E-02   -0.612920098E+00
    0.444471508E+00    0.172681699E-02   -0.612920097E+00
    0.444471508E+00    0.172681699E-02   -0.612920097E+00
    0.444471508E+00    0.172681699E-02   -0.612920097E+00
    0.444471598E+00    0.172681781E-02   -0.612920096E+00
    0.445654810E+00    0.173834246E-02   -0.612901065E+00
    0.454206973E+00    0.182163611E-02   -0.612764677E+00
    0.454207689E+00    0.182163855E-02   -0.612765461E+00
    0.456689060E+00    0.184580474E-02   -0.612726051E+00
    0.456689089E+00    0.184580497E-02   -0.612726051E+00
    0.456689089E+00    0.184580497E-02   -0.612726051E+00
    0.456689089E+00    0.184580497E-02   -0.612726051E+00
    0.456689119E+00    0.184580521E-02   -0.612726050E+00
    0.459712267E+00    0.187673152E-02   -0.612674862E+00
    0.459711999E+00    0.187673466E-02   -0.612673898E+00
    0.468020618E+00    0.196172553E-02   -0.612533995E+00
    0.468912035E+00    0.197084341E-02   -0.612519091E+00
    0.468912095E+00    0.197084411E-02   -0.612519090E+00
    0.468912095E+00    0.197084411E-02   -0.612519090E+00
    0.468912095E+00    0.197084411E-02   -0.612519090E+00
    0.468912154E+00    0.197084481E-02   -0.612519089E+00
    0.481173336E+00    0.210223929E-02   -0.612296899E+00
    0.481173396E+00    0.210223999E-02   -0.612296897E+00
    0.481173396E+00    0.210223999E-02   -0.612296897E+00
    0.481173396E+00    0.210223999E-02   -0.612296897E+00
    0.481173456E+00    0.210224092E-02   -0.612296896E+00
    0.486921102E+00    0.216662418E-02   -0.612185724E+00
    0.486920506E+00    0.216663070E-02   -0.612183783E+00
    0.492704183E+00    0.223140651E-02   -0.612073631E+00
    0.493499696E+00    0.224031601E-02   -0.612058480E+00
    0.493499786E+00    0.224031694E-02   -0.612058479E+00
    0.493499786E+00    0.224031694E-02   -0.612058479E+00
    0.493499786E+00    0.224031694E-02   -0.612058479E+00
    0.493499875E+00    0.224031787E-02   -0.612058477E+00
    0.505912364E+00    0.238541444E-02   -0.611802842E+00
    0.505912423E+00    0.238541490E-02   -0.611802841E+00
    0.505912423E+00    0.238541490E-02   -0.611802841E+00
    0.505912423E+00    0.238541490E-02   -0.611802841E+00
    0.505912483E+00    0.238541537E-02   -0.611802840E+00
    0.507920325E+00    0.240987819E-02   -0.611758745E+00
    0.507920146E+00    0.240988075E-02   -0.611758124E+00
    0.515998781E+00    0.250830734E-02   -0.611580879E+00
    0.518427014E+00    0.253788871E-02   -0.611528001E+00
    0.518427193E+00    0.253789104E-02   -0.611527997E+00
    0.518427193E+00    0.253789104E-02   -0.611527997E+00
    0.518427193E+00    0.253789104E-02   -0.611527997E+00
    0.518427372E+00    0.253789336E-02   -0.611527993E+00
    0.519864321E+00    0.255612913E-02   -0.611493978E+00
    0.524356186E+00    0.261313352E-02   -0.611387530E+00
    0.529357970E+00    0.267658429E-02   -0.611272122E+00
    0.531055272E+00    0.269811624E-02   -0.611232959E+00
    0.531055510E+00    0.269811903E-02   -0.611232954E+00
    0.531055510E+00    0.269811903E-02   -0.611232954E+00
    0.531055510E+00    0.269811903E-02   -0.611232954E+00
    0.531055749E+00    0.269812183E-02   -0.611232949E+00
    0.537123442E+00    0.277825934E-02   -0.611081651E+00
    0.537122905E+00    0.277826725E-02   -0.611079816E+00
    0.541987479E+00    0.284250360E-02   -0.610959839E+00
    0.543804050E+00    0.286649167E-02   -0.610915069E+00
    0.543804288E+00    0.286649493E-02   -0.610915063E+00
    0.543804288E+00    0.286649493E-02   -0.610915063E+00
    0.543804288E+00    0.286649493E-02   -0.610915063E+00
    0.543804526E+00    0.286649819E-02   -0.610915056E+00
    0.556675732E+00    0.304343202E-02   -0.610573332E+00
    0.556675792E+00    0.304343295E-02   -0.610573330E+00
    0.556675792E+00    0.304343295E-02   -0.610573330E+00
    0.556675792E+00    0.304343295E-02   -0.610573330E+00
    0.556675851E+00    0.304343388E-02   -0.610573328E+00
    0.557315290E+00    0.305258646E-02   -0.610555015E+00
    0.562531829E+00    0.312725897E-02   -0.610405421E+00
    0.568820953E+00    0.321725127E-02   -0.610228874E+00
    0.569667637E+00    0.322936592E-02   -0.610205108E+00
    0.569667697E+00    0.322936708E-02   -0.610205105E+00
    0.569667697E+00    0.322936708E-02   -0.610205105E+00
    0.569667697E+00    0.322936708E-02   -0.610205105E+00
    0.569667757E+00    0.322936848E-02   -0.610205103E+00
    0.582772493E+00    0.342475320E-02   -0.609808407E+00
    0.582772613E+00    0.342475506E-02   -0.609808403E+00
    0.582772613E+00    0.342475506E-02   -0.609808403E+00
    0.582772613E+00    0.342475506E-02   -0.609808403E+00
    0.582772732E+00    0.342475716E-02   -0.609808399E+00
    0.584346831E+00    0.344923558E-02   -0.609757041E+00
    0.592243433E+00    0.357203232E-02   -0.609499400E+00
    0.592244983E+00    0.357203814E-02   -0.609501274E+00
    0.595977724E+00    0.363007723E-02   -0.609380245E+00
    0.595977783E+00    0.363007793E-02   -0.609380243E+00
    0.595977783E+00    0.363007793E-02   -0.609380243E+00
    0.595977783E+00    0.363007793E-02   -0.609380243E+00
    0.595977843E+00    0.363007886E-02   -0.609380242E+00
    0.609264553E+00    0.384584092E-02   -0.608918310E+00
    0.609264612E+00    0.384584209E-02   -0.608918307E+00
    0.609264612E+00    0.384584209E-02   -0.608918307E+00
    0.609264612E+00    0.384584209E-02   -0.608918307E+00
    0.609264672E+00    0.384584349E-02   -0.608918304E+00
    0.622607529E+00    0.407257490E-02   -0.608419948E+00
    0.622607589E+00    0.407257583E-02   -0.608419946E+00
    0.622607589E+00    0.407257583E-02   -0.608419946E+00
    0.622607589E+00    0.407257583E-02   -0.608419946E+00
    0.622607648E+00    0.407257676E-02   -0.608419944E+00
    0.635973513E+00    0.431083841E-02   -0.607881852E+00
    0.635973573E+00    0.431083981E-02   -0.607881849E+00
    0.635973573E+00    0.431083981E-02   -0.607881849E+00
    0.635973573E+00    0.431083981E-02   -0.607881849E+00
    0.635973632E+00    0.431084121E-02   -0.607881846E+00
    0.636859298E+00    0.432745833E-02   -0.607843095E+00
    0.645028293E+00    0.448071538E-02   -0.607486364E+00
    0.645029426E+00    0.448072329E-02   -0.607487537E+00
    0.649320245E+00    0.456121750E-02   -0.607300705E+00
    0.649320304E+00    0.456121797E-02   -0.607300703E+00
    0.649320304E+00    0.456121797E-02   -0.607300703E+00
    0.649320304E+00    0.456121797E-02   -0.607300703E+00
    0.649320364E+00    0.456121843E-02   -0.607300702E+00
    0.662594795E+00    0.482432451E-02   -0.606672873E+00
    0.662594914E+00    0.482432684E-02   -0.606672868E+00
    0.662594914E+00    0.482432684E-02   -0.606672868E+00
    0.662594914E+00    0.482432684E-02   -0.606672868E+00
    0.662595034E+00    0.482432917E-02   -0.606672862E+00
    0.675731659E+00    0.510081416E-02   -0.605995695E+00
    0.675731719E+00    0.510081509E-02   -0.605995693E+00
    0.675731719E+00    0.510081509E-02   -0.605995693E+00
    0.675731719E+00    0.510081509E-02   -0.605995693E+00
    0.675731778E+00    0.510081602E-02   -0.605995690E+00
    0.676381052E+00    0.511542102E-02   -0.605958813E+00
    0.685226739E+00    0.531440042E-02   -0.605456389E+00
    0.685228109E+00    0.531440834E-02   -0.605458192E+00
    0.688649416E+00    0.539136073E-02   -0.605264544E+00
    0.688649416E+00    0.539136119E-02   -0.605264543E+00
    0.688649416E+00    0.539136119E-02   -0.605264543E+00
    0.688649416E+00    0.539136119E-02   -0.605264543E+00
    0.688649416E+00    0.539136166E-02   -0.605264541E+00
    0.701247215E+00    0.569667528E-02   -0.604476117E+00
    0.701247394E+00    0.569667993E-02   -0.604476105E+00
    0.701247394E+00    0.569667993E-02   -0.604476105E+00
    0.701247394E+00    0.569667993E-02   -0.604476105E+00
    0.701247573E+00    0.569668459E-02   -0.604476093E+00
    0.702642977E+00    0.573353190E-02   -0.604378214E+00
    0.707367420E+00    0.585828442E-02   -0.604046841E+00
    0.712031960E+00    0.598141737E-02   -0.603722509E+00
    0.713399649E+00    0.601752056E-02   -0.603627414E+00
    0.713399827E+00    0.601752521E-02   -0.603627402E+00
    0.713399827E+00    0.601752521E-02   -0.603627402E+00
    0.713399827E+00    0.601752521E-02   -0.603627402E+00
    0.713400006E+00    0.601753034E-02   -0.603627388E+00
    0.715077460E+00    0.606651558E-02   -0.603494201E+00
    0.720844746E+00    0.623493316E-02   -0.603036285E+00
    0.724191964E+00    0.633264333E-02   -0.602772973E+00
    0.724946797E+00    0.635468028E-02   -0.602713471E+00
    0.724946916E+00    0.635468308E-02   -0.602713464E+00
    0.724946916E+00    0.635468308E-02   -0.602713464E+00
    0.724946916E+00    0.635468308E-02   -0.602713464E+00
    0.724946976E+00    0.635468587E-02   -0.602713456E+00
    0.735680819E+00    0.670898333E-02   -0.601731648E+00
    0.735680878E+00    0.670898520E-02   -0.601731643E+00
    0.735680878E+00    0.670898520E-02   -0.601731643E+00
    0.735680878E+00    0.670898520E-02   -0.601731643E+00
    0.735680938E+00    0.670898706E-02   -0.601731638E+00
    0.738691032E+00    0.682521006E-02   -0.601403340E+00
    0.738690495E+00    0.682522170E-02   -0.601401549E+00
    0.744111359E+00    0.703450059E-02   -0.600811831E+00
    0.745323479E+00    0.708129769E-02   -0.600679964E+00
    0.745323598E+00    0.708130188E-02   -0.600679952E+00
    0.745323598E+00    0.708130188E-02   -0.600679952E+00
    0.745323598E+00    0.708130188E-02   -0.600679952E+00
    0.745323718E+00    0.708130607E-02   -0.600679939E+00
    0.753500521E+00    0.747254631E-02   -0.599560720E+00
    0.753500581E+00    0.747255003E-02   -0.599560709E+00
    0.753500581E+00    0.747255003E-02   -0.599560709E+00
    0.753500581E+00    0.747255003E-02   -0.599560709E+00
    0.753500640E+00    0.747255376E-02   -0.599560698E+00
    0.753979146E+00    0.750399195E-02   -0.599470242E+00
    0.755923390E+00    0.763173029E-02   -0.599102706E+00
    0.758870542E+00    0.782529544E-02   -0.598548331E+00
    0.759759605E+00    0.788368564E-02   -0.598381217E+00
    0.759759724E+00    0.788369216E-02   -0.598381200E+00
    0.759759724E+00    0.788369216E-02   -0.598381200E+00
    0.759759724E+00    0.788369216E-02   -0.598381200E+00
    0.759759784E+00    0.788369868E-02   -0.598381181E+00
    0.760231555E+00    0.793482270E-02   -0.598234710E+00
    0.761796772E+00    0.810443983E-02   -0.597748791E+00
    0.763303339E+00    0.826760661E-02   -0.597283870E+00
    0.763747752E+00    0.831573363E-02   -0.597146739E+00
    0.763747811E+00    0.831574015E-02   -0.597146721E+00
    0.763747811E+00    0.831574015E-02   -0.597146721E+00
    0.763747811E+00    0.831574015E-02   -0.597146721E+00
    0.763747811E+00    0.831574667E-02   -0.597146702E+00
    0.765552521E+00    0.876975153E-02   -0.595841062E+00
    0.765552521E+00    0.876975618E-02   -0.595841048E+00
    0.765552521E+00    0.876975618E-02   -0.595841048E+00
    0.765552521E+00    0.876975618E-02   -0.595841048E+00
    0.765552521E+00    0.876976084E-02   -0.595841033E+00
    0.765585422E+00    0.882665627E-02   -0.595674214E+00
    0.765738905E+00    0.909183454E-02   -0.594896698E+00
    0.765816927E+00    0.922559854E-02   -0.594506717E+00
    0.765829325E+00    0.924685504E-02   -0.594444651E+00
    0.765829325E+00    0.924685784E-02   -0.594444644E+00
    0.765829325E+00    0.924685784E-02   -0.594444644E+00
    0.765829325E+00    0.924685784E-02   -0.594444644E+00
    0.765829325E+00    0.924686063E-02   -0.594444636E+00
    0.765422702E+00    0.974821672E-02   -0.592962808E+00
    0.765422702E+00    0.974821765E-02   -0.592962806E+00
    0.765422702E+00    0.974821765E-02   -0.592962806E+00
    0.765422702E+00    0.974821765E-02   -0.592962806E+00
    0.765422702E+00    0.974821858E-02   -0.592962804E+00
    0.764885902E+00    0.102750631E-01   -0.591411781E+00
    0.764885902E+00    0.102750696E-01   -0.591411761E+00
    0.764885902E+00    0.102750696E-01   -0.591411761E+00
    0.764885902E+00    0.102750696E-01   -0.591411761E+00
    0.764885902E+00    0.102750771E-01   -0.591411740E+00
    0.764675915E+00    0.105103832E-01   -0.590725780E+00
    0.764675498E+00    0.105104065E-01   -0.590724091E+00
    0.764465809E+00    0.107457480E-01   -0.590039227E+00
    0.764391899E+00    0.108287008E-01   -0.589797828E+00
    0.764391899E+00    0.108287102E-01   -0.589797799E+00
    0.764391899E+00    0.108287102E-01   -0.589797799E+00
    0.764391899E+00    0.108287102E-01   -0.589797799E+00
    0.764391899E+00    0.108287204E-01   -0.589797770E+00
    0.763927996E+00    0.114105037E-01   -0.588115642E+00
    0.763927996E+00    0.114105102E-01   -0.588115624E+00
    0.763927996E+00    0.114105102E-01   -0.588115624E+00
    0.763927996E+00    0.114105102E-01   -0.588115624E+00
    0.763927996E+00    0.114105167E-01   -0.588115605E+00
    0.763888657E+00    0.114615383E-01   -0.587968794E+00
    0.763746500E+00    0.116460007E-01   -0.587438012E+00
    0.763530910E+00    0.119264787E-01   -0.586633222E+00
    0.763457596E+00    0.120218694E-01   -0.586359635E+00
    0.763457596E+00    0.120218797E-01   -0.586359605E+00
    0.763457596E+00    0.120218797E-01   -0.586359605E+00
    0.763457596E+00    0.120218797E-01   -0.586359605E+00
    0.763457596E+00    0.120218908E-01   -0.586359574E+00
    0.763389170E+00    0.121111320E-01   -0.586104359E+00
    0.763187707E+00    0.123738479E-01   -0.585353188E+00
    0.763018191E+00    0.125955930E-01   -0.584721098E+00
    0.762965620E+00    0.126643404E-01   -0.584525132E+00
    0.762965620E+00    0.126643497E-01   -0.584525106E+00
    0.762965620E+00    0.126643497E-01   -0.584525106E+00
    0.762965620E+00    0.126643497E-01   -0.584525106E+00
    0.762965620E+00    0.126643591E-01   -0.584525080E+00
    0.762885690E+00    0.127688711E-01   -0.584228197E+00
    0.762600243E+00    0.131421201E-01   -0.583167931E+00
    0.762600660E+00    0.131421397E-01   -0.583169416E+00
    0.762449920E+00    0.133394767E-01   -0.582609490E+00
    0.762449920E+00    0.133394804E-01   -0.582609479E+00
    0.762449920E+00    0.133394804E-01   -0.582609479E+00
    0.762449920E+00    0.133394804E-01   -0.582609479E+00
    0.762449920E+00    0.133394841E-01   -0.582609468E+00
    0.762290895E+00    0.135487867E-01   -0.582019417E+00
    0.762290478E+00    0.135488072E-01   -0.582017838E+00
    0.761992991E+00    0.139407581E-01   -0.580914063E+00
    0.761910915E+00    0.140489293E-01   -0.580609440E+00
    0.761910915E+00    0.140489396E-01   -0.580609412E+00
    0.761910915E+00    0.140489396E-01   -0.580609412E+00
    0.761910915E+00    0.140489396E-01   -0.580609412E+00
    0.761910915E+00    0.140489498E-01   -0.580609384E+00
    0.761842310E+00    0.141397128E-01   -0.580355044E+00
    0.761593282E+00    0.144690545E-01   -0.579432153E+00
    0.761593699E+00    0.144690871E-01   -0.579433559E+00
    0.761348009E+00    0.147944614E-01   -0.578522941E+00
    0.761348009E+00    0.147944698E-01   -0.578522919E+00
    0.761348009E+00    0.147944698E-01   -0.578522919E+00
    0.761348009E+00    0.147944698E-01   -0.578522919E+00
    0.761348009E+00    0.147944782E-01   -0.578522896E+00
    0.761284828E+00    0.148786735E-01   -0.578288582E+00
    0.760988236E+00    0.152736688E-01   -0.577189645E+00
    0.760988533E+00    0.152736995E-01   -0.577190706E+00
    0.760760307E+00    0.155779039E-01   -0.576345046E+00
    0.760760307E+00    0.155779095E-01   -0.576345031E+00
    0.760760307E+00    0.155779095E-01   -0.576345031E+00
    0.760760307E+00    0.155779095E-01   -0.576345031E+00
    0.760760307E+00    0.155779151E-01   -0.576345016E+00
    0.760146618E+00    0.164011829E-01   -0.574073451E+00
    0.760146618E+00    0.164011903E-01   -0.574073432E+00
    0.760146618E+00    0.164011903E-01   -0.574073432E+00
    0.760146618E+00    0.164011903E-01   -0.574073432E+00
    0.760146618E+00    0.164011978E-01   -0.574073412E+00
    0.759506106E+00    0.172663145E-01   -0.571704493E+00
    0.759506106E+00    0.172663201E-01   -0.571704478E+00
    0.759506106E+00    0.172663201E-01   -0.571704478E+00
    0.759506106E+00    0.172663201E-01   -0.571704478E+00
    0.759506106E+00    0.172663257E-01   -0.571704463E+00
    0.759467125E+00    0.173192453E-01   -0.571560530E+00
    0.759159684E+00    0.177370049E-01   -0.570424299E+00
    0.759159982E+00    0.177370496E-01   -0.570425586E+00
    0.758837700E+00    0.181754436E-01   -0.569234543E+00
    0.758837700E+00    0.181754492E-01   -0.569234528E+00
    0.758837700E+00    0.181754492E-01   -0.569234528E+00
    0.758837700E+00    0.181754492E-01   -0.569234528E+00
    0.758837700E+00    0.181754548E-01   -0.569234513E+00
    0.758140325E+00    0.191308036E-01   -0.566659623E+00
    0.758140325E+00    0.191308092E-01   -0.566659608E+00
    0.758140325E+00    0.191308092E-01   -0.566659608E+00
    0.758140325E+00    0.191308092E-01   -0.566659608E+00
    0.758140325E+00    0.191308148E-01   -0.566659592E+00
    0.758103132E+00    0.191820897E-01   -0.566522376E+00
    0.757820547E+00    0.195717607E-01   -0.565479428E+00
    0.757465422E+00    0.200623330E-01   -0.564169136E+00
    0.757413030E+00    0.201347321E-01   -0.563975763E+00
    0.757413030E+00    0.201347396E-01   -0.563975743E+00
    0.757413030E+00    0.201347396E-01   -0.563975743E+00
    0.757413030E+00    0.201347396E-01   -0.563975743E+00
    0.757413030E+00    0.201347470E-01   -0.563975722E+00
    0.756654680E+00    0.211897027E-01   -0.561179667E+00
    0.756654680E+00    0.211897194E-01   -0.561179623E+00
    0.756654680E+00    0.211897194E-01   -0.561179623E+00
    0.756654680E+00    0.211897194E-01   -0.561179623E+00
    0.756654680E+00    0.211897362E-01   -0.561179577E+00
    0.755864322E+00    0.222983267E-01   -0.558267309E+00
    0.755864322E+00    0.222983397E-01   -0.558267274E+00
    0.755864322E+00    0.222983397E-01   -0.558267274E+00
    0.755864322E+00    0.222983397E-01   -0.558267274E+00
    0.755864322E+00    0.222983547E-01   -0.558267237E+00
    0.755040705E+00    0.234633125E-01   -0.555234436E+00
    0.755040705E+00    0.234633293E-01   -0.555234391E+00
    0.755040705E+00    0.234633293E-01   -0.555234391E+00
    0.755040705E+00    0.234633293E-01   -0.555234391E+00
    0.755040705E+00    0.234633479E-01   -0.555234343E+00
    0.754859924E+00    0.237211436E-01   -0.554569110E+00
    0.754254103E+00    0.245850924E-01   -0.552339714E+00
    0.754254401E+00    0.245851036E-01   -0.552340943E+00
    0.754182577E+00    0.246875584E-01   -0.552076673E+00
    0.754182577E+00    0.246875603E-01   -0.552076669E+00
    0.754182577E+00    0.246875603E-01   -0.552076669E+00
    0.754182577E+00    0.246875603E-01   -0.552076669E+00
    0.754182577E+00    0.246875621E-01   -0.552076665E+00
    0.753289104E+00    0.259740204E-01   -0.548791154E+00
    0.753289104E+00    0.259740297E-01   -0.548791129E+00
    0.753289104E+00    0.259740297E-01   -0.548791129E+00
    0.753289104E+00    0.259740297E-01   -0.548791129E+00
    0.753289104E+00    0.259740409E-01   -0.548791102E+00
    0.753230035E+00    0.260597747E-01   -0.548574124E+00
    0.752985299E+00    0.264150798E-01   -0.547674491E+00
    0.752512515E+00    0.271024164E-01   -0.545937094E+00
    0.752358794E+00    0.273258984E-01   -0.545372195E+00
    0.752358794E+00    0.273259208E-01   -0.545372140E+00
    0.752358794E+00    0.273259208E-01   -0.545372140E+00
    0.752358794E+00    0.273259208E-01   -0.545372140E+00
    0.752358794E+00    0.273259431E-01   -0.545372082E+00
    0.751390696E+00    0.287465416E-01   -0.541816768E+00
    0.751390696E+00    0.287465602E-01   -0.541816723E+00