variables= "N","h","cd","cd_p","cd_v","mut_max"
zone t="USM3D"
   2131200  7.7706710E-03   0.121348E-01  0.190632E-02  0.102285E-01  152.084327208182
  17049600  3.8853355E-03   0.114724E-01  0.121740E-02  0.102550E-01  153.703221783800
 136396800  1.9426678E-03   0.113393E-01  0.108522E-02  0.102541E-01  154.869161494800
