# Convergence of Cp with grid size
variables="h","Cp"
ZONE T="USM3D, x=0.25"
7.7706710E-03 -5.363185406E-01
3.8853355E-03 -5.530619621E-01
1.9426678E-03 -5.558583140E-01
ZONE T="USM3D, x=0.50"
7.7706710E-03 -6.401310563E-01
3.8853355E-03 -6.142524481E-01
1.9426678E-03 -6.146573424E-01
ZONE T="USM3D, x=1.5"
7.7706710E-03 -4.210637510E-02
3.8853355E-03 -4.193601012E-02
1.9426678E-03 -4.192756489E-02
