# Nakayama airfoil near-wake u'v' results from CFL3D, Wilcox2006 model
VARIABLES = "x/c","y/c","uv/Uinf^2"
ZONE T="x=     1.01"
 1.009999990E+00 -2.000000000E+01 0.000000000E+00
 1.009999990E+00 -1.762935829E+01 3.063349813E-13
 1.009999990E+00 -1.552302074E+01 3.051540140E-13
 1.009999990E+00 -1.365006256E+01 3.546831611E-13
 1.009999990E+00 -1.198371601E+01 4.270289092E-13
 1.009999990E+00 -1.050095367E+01 5.255227135E-13
 1.009999990E+00 -9.187080383E+00 6.525487616E-13
 1.009999990E+00 -8.028047562E+00 8.112337299E-13
 1.009999990E+00 -7.009023190E+00 1.006668924E-12
 1.009999990E+00 -6.115376949E+00 1.242121857E-12
 1.009999990E+00 -5.333259106E+00 1.511641615E-12
 1.009999990E+00 -4.648599148E+00 1.816998700E-12
 1.009999990E+00 -4.049817562E+00 2.153178677E-12
 1.009999990E+00 -3.527163267E+00 2.501716499E-12
 1.009999990E+00 -3.071532488E+00 2.842871988E-12
 1.009999990E+00 -2.674517870E+00 3.158599250E-12
 1.009999990E+00 -2.328519583E+00 3.448412562E-12
 1.009999990E+00 -2.026917219E+00 3.744516849E-12
 1.009999990E+00 -1.764189005E+00 4.227577056E-12
 1.009999990E+00 -1.535483956E+00 5.133901984E-12
 1.009999990E+00 -1.336458564E+00 7.026095417E-12
 1.009999990E+00 -1.163307071E+00 1.069845514E-11
 1.009999990E+00 -1.012687445E+00 1.720153707E-11
 1.009999990E+00 -8.816571236E-01 2.775983610E-11
 1.009999990E+00 -7.676297426E-01 4.362838563E-11
 1.009999990E+00 -6.683574915E-01 6.589578883E-11
 1.009999990E+00 -5.819134116E-01 9.543391077E-11
 1.009999990E+00 -5.066817999E-01 1.333823607E-10
 1.009999990E+00 -4.412224591E-01 1.790263771E-10
 1.009999990E+00 -3.842662573E-01 2.338604588E-10
 1.009999990E+00 -3.347085118E-01 2.982301628E-10
 1.009999990E+00 -2.915873230E-01 3.726413900E-10
 1.009999990E+00 -2.540645897E-01 4.572183743E-10
 1.009999990E+00 -2.214095891E-01 5.528324465E-10
 1.009999990E+00 -1.929851174E-01 6.607913661E-10
 1.009999990E+00 -1.682362258E-01 7.827339332E-10
 1.009999990E+00 -1.466813833E-01 8.732501944E-10
 1.009999990E+00 -1.279038042E-01 8.988862432E-10
 1.009999990E+00 -1.115431413E-01 0.000000000E+00
 1.009999990E+00 -9.728937596E-02 9.511603727E-10
 1.009999990E+00 -8.487328887E-02 9.792333611E-10
 1.009999990E+00 -7.405691594E-02 1.009147765E-09
 1.009999990E+00 -6.463326514E-02 1.041347453E-09
 1.009999990E+00 -5.642225966E-02 1.074417888E-09
 1.009999990E+00 -4.926729202E-02 1.104056957E-09
 1.009999990E+00 -4.303215444E-02 1.242042358E-09
 1.009999990E+00 -3.759843111E-02 2.336244087E-08
 1.009999990E+00 -3.286323324E-02 1.778968453E-06
 1.009999990E+00 -2.873690799E-02 3.471586024E-05
 1.009999990E+00 -2.514080144E-02 1.678178814E-04
 1.009999990E+00 -2.200495824E-02 4.176387447E-04
 1.009999990E+00 -1.926806383E-02 7.204923895E-04
 1.009999990E+00 -1.687803119E-02 9.974669665E-04
 1.009999990E+00 -1.479041390E-02 1.222099760E-03
 1.009999990E+00 -1.296673436E-02 1.401895308E-03
 1.009999990E+00 -1.137335505E-02 1.544475323E-03
 1.009999990E+00 -9.980906732E-03 1.653711428E-03
 1.009999990E+00 -8.763763122E-03 1.713735866E-03
 1.009999990E+00 -7.699561305E-03 1.743079745E-03
 1.009999990E+00 -6.768784486E-03 1.755491365E-03
 1.009999990E+00 -5.954416469E-03 1.755755744E-03
 1.009999990E+00 -5.241622217E-03 1.747836359E-03
 1.009999990E+00 -4.617467057E-03 1.734714489E-03
 1.009999990E+00 -4.070675466E-03 1.718478277E-03
 1.009999990E+00 -3.591416869E-03 1.700395602E-03
 1.009999990E+00 -3.171118908E-03 1.681142254E-03
 1.009999990E+00 -2.802307252E-03 1.661026501E-03
 1.009999990E+00 -2.478463110E-03 1.640081755E-03
 1.009999990E+00 -2.193900989E-03 1.618145150E-03
 1.009999990E+00 -1.943660667E-03 1.595044276E-03
 1.009999990E+00 -1.723414403E-03 1.570507302E-03
 1.009999990E+00 -1.529385685E-03 1.544034574E-03
 1.009999990E+00 -1.358277281E-03 1.514623291E-03
 1.009999990E+00 -1.207210822E-03 1.480521751E-03
 1.009999990E+00 -1.073671854E-03 1.439932734E-03
 1.009999990E+00 -9.554634453E-04 1.390821300E-03
 1.009999990E+00 -8.506651502E-04 1.331536565E-03
 1.009999990E+00 -7.575973286E-04 1.261187252E-03
 1.009999990E+00 -6.747901789E-04 1.179845887E-03
 1.009999990E+00 -6.009563804E-04 1.088152407E-03
 1.009999990E+00 -5.349675776E-04 9.892762173E-04
 1.009999990E+00 -4.758337745E-04 8.859874215E-04
 1.009999990E+00 -4.226850579E-04 7.810830721E-04
 1.009999990E+00 -3.747559094E-04 6.772512570E-04
 1.009999990E+00 -3.313714988E-04 5.767235998E-04
 1.009999990E+00 -2.919352846E-04 4.810550890E-04
 1.009999990E+00 -2.559186541E-04 3.911477979E-04
 1.009999990E+00 -2.228512603E-04 3.073147673E-04
 1.009999990E+00 -1.923129748E-04 2.294140140E-04
 1.009999990E+00 -1.639263937E-04 1.570861496E-04
 1.009999990E+00 -1.373503474E-04 8.968428301E-05
 1.009999990E+00 -1.122739923E-04 2.649866110E-05
 1.009999990E+00 -8.841152157E-05 -3.283203114E-05
 1.009999990E+00 -6.549735554E-05 -8.914652426E-05
 1.009999990E+00 -4.328163413E-05 -1.427695388E-04
 1.009999990E+00 -2.152606976E-05 -1.943460957E-04
 1.009999990E+00 0.000000000E+00 -2.443383855E-04
 1.009999990E+00 2.152607703E-05 -2.932860225E-04
 1.009999990E+00 4.328164869E-05 -3.414422099E-04
 1.009999990E+00 6.549738464E-05 -3.892375098E-04
 1.009999990E+00 8.841155795E-05 -4.371898540E-04
 1.009999990E+00 1.122740359E-04 -4.854806175E-04
 1.009999990E+00 1.373504056E-04 -5.345714162E-04
 1.009999990E+00 1.639264665E-04 -5.845862906E-04
 1.009999990E+00 1.923130476E-04 -6.358912215E-04
 1.009999990E+00 2.228513476E-04 -6.887339987E-04
 1.009999990E+00 2.559187415E-04 -7.432271377E-04
 1.009999990E+00 2.919354301E-04 -7.994715706E-04
 1.009999990E+00 3.313716443E-04 -8.575165994E-04
 1.009999990E+00 3.747560841E-04 -9.173483122E-04
 1.009999990E+00 4.226852325E-04 -9.788941825E-04
 1.009999990E+00 4.758340074E-04 -1.041984418E-03
 1.009999990E+00 5.349678686E-04 -1.106348704E-03
 1.009999990E+00 6.009566714E-04 -1.171658630E-03
 1.009999990E+00 6.747905281E-04 -1.237543416E-03
 1.009999990E+00 7.575977361E-04 -1.303198864E-03
 1.009999990E+00 8.506656159E-04 -1.368388534E-03
 1.009999990E+00 9.554639691E-04 -1.432682620E-03
 1.009999990E+00 1.073672436E-03 -1.495637582E-03
 1.009999990E+00 1.207211521E-03 -1.556868316E-03
 1.009999990E+00 1.358278096E-03 -1.616080292E-03
 1.009999990E+00 1.529386616E-03 -1.672842307E-03
 1.009999990E+00 1.723415568E-03 -1.727349474E-03
 1.009999990E+00 1.943661831E-03 -1.779941143E-03
 1.009999990E+00 2.193902386E-03 -1.830996829E-03
 1.009999990E+00 2.478464739E-03 -1.881037606E-03
 1.009999990E+00 2.802309114E-03 -1.930625178E-03
 1.009999990E+00 3.171121236E-03 -1.980256056E-03
 1.009999990E+00 3.591419430E-03 -2.030060394E-03
 1.009999990E+00 4.070678726E-03 -2.079665661E-03
 1.009999990E+00 4.617470782E-03 -2.128184307E-03
 1.009999990E+00 5.241626408E-03 -2.173881046E-03
 1.009999990E+00 5.954421591E-03 -2.213842468E-03
 1.009999990E+00 6.768790074E-03 -2.243951429E-03
 1.009999990E+00 7.699568290E-03 -2.258806722E-03
 1.009999990E+00 8.763771504E-03 -2.242346294E-03
 1.009999990E+00 9.980916046E-03 -2.169986023E-03
 1.009999990E+00 1.137336716E-02 -2.058619633E-03
 1.009999990E+00 1.296674833E-02 -1.903573633E-03
 1.009999990E+00 1.479043160E-02 -1.699310727E-03
 1.009999990E+00 1.687805541E-02 -1.435977174E-03
 1.009999990E+00 1.926809363E-02 -1.103603630E-03
 1.009999990E+00 2.200499550E-02 -7.212288911E-04
 1.009999990E+00 2.514084801E-02 -3.662583185E-04
 1.009999990E+00 2.873696573E-02 -1.287502819E-04
 1.009999990E+00 3.286330029E-02 -2.537247565E-05
 1.009999990E+00 3.759850189E-02 -1.932545729E-06
 1.009999990E+00 4.303222895E-02 -6.365583261E-08
 1.009999990E+00 4.926737025E-02 -2.457502424E-09
 1.009999990E+00 5.642234161E-02 -1.281739270E-09
 1.009999990E+00 6.463334709E-02 -1.220836654E-09
 1.009999990E+00 7.405699790E-02 -1.167806851E-09
 1.009999990E+00 8.487337828E-02 -1.112962278E-09
 1.009999990E+00 9.728947282E-02 -1.059394794E-09
 1.009999990E+00 1.115432382E-01 0.000000000E+00
 1.009999990E+00 1.279039085E-01 -9.488972941E-10
 1.009999990E+00 1.466814727E-01 -8.906637650E-10
 1.009999990E+00 1.682363302E-01 -8.289053333E-10
 1.009999990E+00 1.929852217E-01 -7.646270839E-10
 1.009999990E+00 2.214096934E-01 -6.962848076E-10
 1.009999990E+00 2.540646791E-01 -6.232930838E-10
 1.009999990E+00 2.915874124E-01 -5.042557483E-10
 1.009999990E+00 3.347086012E-01 -3.714948349E-10
 1.009999990E+00 3.842663467E-01 -2.588776415E-10
 1.009999990E+00 4.412225485E-01 -1.659378884E-10
 1.009999990E+00 5.066819191E-01 -9.252873467E-11
 1.009999990E+00 5.819134712E-01 -3.691640049E-11
 1.009999990E+00 6.683575511E-01 2.263673624E-12
 1.009999990E+00 7.676298022E-01 2.755609282E-11
 1.009999990E+00 8.816572428E-01 4.168998480E-11
 1.009999990E+00 1.012687564E+00 4.720479910E-11
 1.009999990E+00 1.163307190E+00 4.668592249E-11
 1.009999990E+00 1.336458683E+00 4.247824315E-11
 1.009999990E+00 1.535484076E+00 3.645314606E-11
 1.009999990E+00 1.764189124E+00 2.991826925E-11
 1.009999990E+00 2.026917458E+00 2.391563336E-11
 1.009999990E+00 2.328519583E+00 1.855719918E-11
 1.009999990E+00 2.674518108E+00 1.418815412E-11
 1.009999990E+00 3.071532488E+00 1.071597672E-11
 1.009999990E+00 3.527163506E+00 8.028453770E-12
 1.009999990E+00 4.049818039E+00 5.987702521E-12
 1.009999990E+00 4.648599148E+00 4.455246935E-12
 1.009999990E+00 5.333259106E+00 3.324183376E-12
 1.009999990E+00 6.115376949E+00 2.487463360E-12
 1.009999990E+00 7.009023190E+00 1.862921492E-12
 1.009999990E+00 8.028047562E+00 1.405703245E-12
 1.009999990E+00 9.187080383E+00 1.071680722E-12
 1.009999990E+00 1.050095367E+01 8.273566294E-13
 1.009999990E+00 1.198371601E+01 6.514043320E-13
 1.009999990E+00 1.365006256E+01 5.314291216E-13
 1.009999990E+00 1.552302074E+01 4.553050103E-13
 1.009999990E+00 1.762935829E+01 4.718417497E-13
 1.009999990E+00 2.000000000E+01 0.000000000E+00
ZONE T="x=     1.05"
 1.049999952E+00 -2.000000000E+01 0.000000000E+00
 1.049999952E+00 -1.762935829E+01 3.057789211E-13
 1.049999952E+00 -1.552302074E+01 3.045104316E-13
 1.049999952E+00 -1.365006256E+01 3.539760986E-13
 1.049999952E+00 -1.198371601E+01 4.261240070E-13
 1.049999952E+00 -1.050095367E+01 5.243152375E-13
 1.049999952E+00 -9.187080383E+00 6.508603335E-13
 1.049999952E+00 -8.028047562E+00 8.089311556E-13
 1.049999952E+00 -7.009023190E+00 1.002239199E-12
 1.049999952E+00 -6.115376949E+00 0.000000000E+00
 1.049999952E+00 -5.333259106E+00 1.504374750E-12
 1.049999952E+00 -4.648599148E+00 1.810071949E-12
 1.049999952E+00 -4.049817562E+00 2.146429518E-12
 1.049999952E+00 -3.527163267E+00 2.498865481E-12
 1.049999952E+00 -3.071532488E+00 2.852672525E-12
 1.049999952E+00 -2.674517870E+00 3.199121957E-12
 1.049999952E+00 -2.328519583E+00 3.553275946E-12
 1.049999952E+00 -2.026917219E+00 3.972003282E-12
 1.049999952E+00 -1.764189005E+00 4.672293802E-12
 1.049999952E+00 -1.535483956E+00 5.932909112E-12
 1.049999952E+00 -1.336458564E+00 8.354155909E-12
 1.049999952E+00 -1.163307071E+00 1.275211881E-11
 1.049999952E+00 -1.012687445E+00 2.014332971E-11
 1.049999952E+00 -8.816571236E-01 3.165611176E-11
 1.049999952E+00 -7.676297426E-01 4.812522603E-11
 1.049999952E+00 -6.683574915E-01 0.000000000E+00
 1.049999952E+00 -5.819134116E-01 1.010943551E-10
 1.049999952E+00 -5.066817999E-01 1.382856607E-10
 1.049999952E+00 -4.412224591E-01 1.823601270E-10
 1.049999952E+00 -3.842662573E-01 2.344023309E-10
 1.049999952E+00 -3.347085118E-01 2.945477751E-10
 1.049999952E+00 -2.915873230E-01 3.629123391E-10
 1.049999952E+00 -2.540645897E-01 4.391519648E-10
 1.049999952E+00 -2.214095891E-01 5.233997680E-10
 1.049999952E+00 -1.929851174E-01 6.159053267E-10
 1.049999952E+00 -1.682362258E-01 7.167026972E-10
 1.049999952E+00 -1.466813833E-01 8.251116457E-10
 1.049999952E+00 -1.279038042E-01 8.730852707E-10
 1.049999952E+00 -1.115431413E-01 8.818831221E-10
 1.049999952E+00 -9.728937596E-02 8.881277935E-10
 1.049999952E+00 -8.487328887E-02 8.912041105E-10
 1.049999952E+00 -7.405691594E-02 8.914390337E-10
 1.049999952E+00 -6.463326514E-02 8.885774339E-10
 1.049999952E+00 -5.642225966E-02 8.808086482E-10
 1.049999952E+00 -4.926729202E-02 8.670731910E-10
 1.049999952E+00 -4.303215444E-02 1.419495854E-09
 1.049999952E+00 -3.759843111E-02 1.128603557E-07
 1.049999952E+00 -3.286323324E-02 6.269336154E-06
 1.049999952E+00 -2.873690799E-02 6.563546776E-05
 1.049999952E+00 -2.514080144E-02 2.312883735E-04
 1.049999952E+00 -2.200495824E-02 4.950059811E-04
 1.049999952E+00 -1.926806383E-02 7.917919429E-04
 1.049999952E+00 -1.687803119E-02 1.057562069E-03
 1.049999952E+00 -1.479041390E-02 1.232495764E-03
 1.049999952E+00 -1.296673436E-02 1.339199604E-03
 1.049999952E+00 -1.137335505E-02 1.429320197E-03
 1.049999952E+00 -9.980906732E-03 1.497669378E-03
 1.049999952E+00 -8.763763122E-03 1.546882326E-03
 1.049999952E+00 -7.699561305E-03 1.580444630E-03
 1.049999952E+00 -6.768784486E-03 1.601431402E-03
 1.049999952E+00 -5.954416469E-03 1.611706102E-03
 1.049999952E+00 -5.241622217E-03 1.610890147E-03
 1.049999952E+00 -4.617467057E-03 1.597453724E-03
 1.049999952E+00 -4.070675466E-03 1.568139880E-03
 1.049999952E+00 -3.591416869E-03 1.519477461E-03
 1.049999952E+00 -3.171118908E-03 1.447659335E-03
 1.049999952E+00 -2.802307252E-03 1.351856743E-03
 1.049999952E+00 -2.478463110E-03 1.234724885E-03
 1.049999952E+00 -2.193900989E-03 1.100425492E-03
 1.049999952E+00 -1.943660667E-03 9.534280398E-04
 1.049999952E+00 -1.723414403E-03 8.021547110E-04
 1.049999952E+00 -1.529385685E-03 6.528009544E-04
 1.049999952E+00 -1.358277281E-03 5.099950940E-04
 1.049999952E+00 -1.207210822E-03 3.775304940E-04
 1.049999952E+00 -1.073671854E-03 2.573844104E-04
 1.049999952E+00 -9.554634453E-04 1.499507198E-04
 1.049999952E+00 -8.506651502E-04 5.482397319E-05
 1.049999952E+00 -7.575973286E-04 -2.897420745E-05
 1.049999952E+00 -6.747901789E-04 -1.025386446E-04
 1.049999952E+00 -6.009563804E-04 -1.671412901E-04
 1.049999952E+00 -5.349675776E-04 -2.239302412E-04
 1.049999952E+00 -4.758337745E-04 -2.739891643E-04
 1.049999952E+00 -4.226850579E-04 -3.182670334E-04
 1.049999952E+00 -3.747559094E-04 -3.575798473E-04
 1.049999952E+00 -3.313714988E-04 -3.926351783E-04
 1.049999952E+00 -2.919352846E-04 -4.240755516E-04
 1.049999952E+00 -2.559186541E-04 -4.524302494E-04
 1.049999952E+00 -2.228512603E-04 -4.781231692E-04
 1.049999952E+00 -1.923129748E-04 -5.016065552E-04
 1.049999952E+00 -1.639263937E-04 -5.231723771E-04
 1.049999952E+00 -1.373503474E-04 -5.431901081E-04
 1.049999952E+00 -1.122739923E-04 -5.618774449E-04
 1.049999952E+00 -8.841152157E-05 -5.794753088E-04
 1.049999952E+00 -6.549735554E-05 -5.962538416E-04
 1.049999952E+00 -4.328163413E-05 -6.123727653E-04
 1.049999952E+00 -2.152606976E-05 -6.316949730E-04
 1.049999952E+00 0.000000000E+00 -6.432812079E-04
 1.049999952E+00 2.152607703E-05 -6.548481178E-04
 1.049999952E+00 4.328164869E-05 -6.738118827E-04
 1.049999952E+00 6.549738464E-05 -6.892386009E-04
 1.049999952E+00 8.841155795E-05 -7.049952401E-04
 1.049999952E+00 1.122740359E-04 -7.212270866E-04
 1.049999952E+00 1.373504056E-04 -7.381493924E-04
 1.049999952E+00 1.639264665E-04 -7.558715297E-04
 1.049999952E+00 1.923130476E-04 -7.745728944E-04
 1.049999952E+00 2.228513476E-04 -7.944622193E-04
 1.049999952E+00 2.559187415E-04 -8.156950935E-04
 1.049999952E+00 2.919354301E-04 -8.384796092E-04
 1.049999952E+00 3.313716443E-04 -8.630391094E-04
 1.049999952E+00 3.747560841E-04 -8.895754581E-04
 1.049999952E+00 4.226852325E-04 -9.183036163E-04
 1.049999952E+00 4.758340074E-04 -9.494592668E-04
 1.049999952E+00 5.349678686E-04 -9.832795477E-04
 1.049999952E+00 6.009566714E-04 -1.019983552E-03
 1.049999952E+00 6.747905281E-04 -1.059756614E-03
 1.049999952E+00 7.575977361E-04 -1.102805836E-03
 1.049999952E+00 8.506656159E-04 -1.149320975E-03
 1.049999952E+00 9.554639691E-04 -1.199366758E-03
 1.049999952E+00 1.073672436E-03 -1.252916176E-03
 1.049999952E+00 1.207211521E-03 -1.309895655E-03
 1.049999952E+00 1.358278096E-03 -1.370228943E-03
 1.049999952E+00 1.529386616E-03 -1.433425816E-03
 1.049999952E+00 1.723415568E-03 -1.498828293E-03
 1.049999952E+00 1.943661831E-03 -1.565975719E-03
 1.049999952E+00 2.193902386E-03 -1.633860287E-03
 1.049999952E+00 2.478464739E-03 -1.700813649E-03
 1.049999952E+00 2.802309114E-03 -1.765934750E-03
 1.049999952E+00 3.171121236E-03 -1.827644417E-03
 1.049999952E+00 3.591419430E-03 -1.883984427E-03
 1.049999952E+00 4.070678726E-03 -1.932900399E-03
 1.049999952E+00 4.617470782E-03 -1.972902101E-03
 1.049999952E+00 5.241626408E-03 -2.002099529E-03
 1.049999952E+00 5.954421591E-03 -2.018362982E-03
 1.049999952E+00 6.768790074E-03 -2.018949017E-03
 1.049999952E+00 7.699568290E-03 -2.002179623E-03
 1.049999952E+00 8.763771504E-03 -1.965412404E-03
 1.049999952E+00 9.980916046E-03 -1.905887504E-03
 1.049999952E+00 1.137336716E-02 -1.820964739E-03
 1.049999952E+00 1.296674833E-02 -1.719902037E-03
 1.049999952E+00 1.479043160E-02 -1.494725700E-03
 1.049999952E+00 1.687805541E-02 -1.211659051E-03
 1.049999952E+00 1.926809363E-02 -8.837087662E-04
 1.049999952E+00 2.200499550E-02 -5.514381919E-04
 1.049999952E+00 2.514084801E-02 -2.750039857E-04
 1.049999952E+00 2.873696573E-02 -9.820182458E-05
 1.049999952E+00 3.286330029E-02 -2.058410428E-05
 1.049999952E+00 3.759850189E-02 -2.023321031E-06
 1.049999952E+00 4.303222895E-02 -7.653480338E-08
 1.049999952E+00 4.926737025E-02 -2.995719228E-09
 1.049999952E+00 5.642234161E-02 -1.221525991E-09
 1.049999952E+00 6.463334709E-02 -1.182983045E-09
 1.049999952E+00 7.405699790E-02 -1.161553187E-09
 1.049999952E+00 8.487337828E-02 -1.133040217E-09
 1.049999952E+00 9.728947282E-02 -1.098894753E-09
 1.049999952E+00 1.115432382E-01 -1.059494270E-09
 1.049999952E+00 1.279039085E-01 -1.015046935E-09
 1.049999952E+00 1.466814727E-01 -9.654262945E-10
 1.049999952E+00 1.682363302E-01 -9.105130538E-10
 1.049999952E+00 1.929852217E-01 -8.501180315E-10
 1.049999952E+00 2.214096934E-01 -7.840080807E-10
 1.049999952E+00 2.540646791E-01 -6.705451194E-10
 1.049999952E+00 2.915874124E-01 -5.279706117E-10
 1.049999952E+00 3.347086012E-01 -4.011772858E-10
 1.049999952E+00 3.842663467E-01 -2.909610330E-10
 1.049999952E+00 4.412225485E-01 -1.976712821E-10
 1.049999952E+00 5.066819191E-01 -1.218855294E-10
 1.049999952E+00 5.819134712E-01 -6.279020359E-11
 1.049999952E+00 6.683575511E-01 0.000000000E+00
 1.049999952E+00 7.676298022E-01 1.161724449E-11
 1.049999952E+00 8.816572428E-01 2.862641547E-11
 1.049999952E+00 1.012687564E+00 3.760185219E-11
 1.049999952E+00 1.163307190E+00 3.998017889E-11
 1.049999952E+00 1.336458683E+00 3.801224960E-11
 1.049999952E+00 1.535484076E+00 3.358950618E-11
 1.049999952E+00 1.764189124E+00 2.814618157E-11
 1.049999952E+00 2.026917458E+00 2.285981127E-11
 1.049999952E+00 2.328519583E+00 1.793611960E-11
 1.049999952E+00 2.674518108E+00 1.383108992E-11
 1.049999952E+00 3.071532488E+00 1.051471844E-11
 1.049999952E+00 3.527163506E+00 7.916330785E-12
 1.049999952E+00 4.049818039E+00 5.925110229E-12
 1.049999952E+00 4.648599148E+00 4.420575451E-12
 1.049999952E+00 5.333259106E+00 3.302435148E-12
 1.049999952E+00 6.115376949E+00 0.000000000E+00
 1.049999952E+00 7.009023190E+00 1.855041294E-12
 1.049999952E+00 8.028047562E+00 1.402491404E-12
 1.049999952E+00 9.187080383E+00 1.069681453E-12
 1.049999952E+00 1.050095367E+01 8.261498582E-13
 1.049999952E+00 1.198371601E+01 6.505731284E-13
 1.049999952E+00 1.365006256E+01 5.308056512E-13
 1.049999952E+00 1.552302074E+01 4.546041820E-13
 1.049999952E+00 1.762935829E+01 4.714956724E-13
 1.049999952E+00 2.000000000E+01 0.000000000E+00
ZONE T="x=     1.20"
 1.200000048E+00 -2.000000000E+01 0.000000000E+00
 1.200000048E+00 -1.762935829E+01 3.036657297E-13
 1.200000048E+00 -1.552302074E+01 3.020522743E-13
 1.200000048E+00 -1.365006256E+01 3.512010832E-13
 1.200000048E+00 -1.198371601E+01 4.224926073E-13
 1.200000048E+00 -1.050095367E+01 5.194520486E-13
 1.200000048E+00 -9.187080383E+00 6.442272930E-13
 1.200000048E+00 -8.028047562E+00 7.996755385E-13
 1.200000048E+00 -7.009023190E+00 9.892023181E-13
 1.200000048E+00 -6.115376949E+00 1.215367108E-12
 1.200000048E+00 -5.333259106E+00 1.481670364E-12
 1.200000048E+00 -4.648599148E+00 1.781304054E-12
 1.200000048E+00 -4.049817562E+00 2.119095481E-12
 1.200000048E+00 -3.527163267E+00 2.484402874E-12
 1.200000048E+00 -3.071532488E+00 2.882066547E-12
 1.200000048E+00 -2.674517870E+00 3.337279888E-12
 1.200000048E+00 -2.328519583E+00 3.915743164E-12
 1.200000048E+00 -2.026917219E+00 4.751880313E-12
 1.200000048E+00 -1.764189005E+00 6.145521592E-12
 1.200000048E+00 -1.535483956E+00 8.465389847E-12
 1.200000048E+00 -1.336458564E+00 1.231962102E-11
 1.200000048E+00 -1.163307071E+00 1.840566588E-11
 1.200000048E+00 -1.012687445E+00 2.741232935E-11
 1.200000048E+00 -8.816571236E-01 3.988813446E-11
 1.200000048E+00 -7.676297426E-01 5.610699058E-11
 1.200000048E+00 -6.683574915E-01 7.590664902E-11
 1.200000048E+00 -5.819134116E-01 9.921529570E-11
 1.200000048E+00 -5.066817999E-01 1.250977100E-10
 1.200000048E+00 -4.412224591E-01 1.521397869E-10
 1.200000048E+00 -3.842662573E-01 1.799251997E-10
 1.200000048E+00 -3.347085118E-01 2.068102217E-10
 1.200000048E+00 -2.915873230E-01 2.310362179E-10
 1.200000048E+00 -2.540645897E-01 2.507967445E-10
 1.200000048E+00 -2.214095891E-01 2.648031516E-10
 1.200000048E+00 -1.929851174E-01 2.721982639E-10
 1.200000048E+00 -1.682362258E-01 2.726629478E-10
 1.200000048E+00 -1.466813833E-01 2.662882970E-10
 1.200000048E+00 -1.279038042E-01 2.535860966E-10
 1.200000048E+00 -1.115431413E-01 2.360119600E-10
 1.200000048E+00 -9.728937596E-02 2.158229012E-10
 1.200000048E+00 -8.487328887E-02 1.910569897E-10
 1.200000048E+00 -7.405691594E-02 1.653202852E-10
 1.200000048E+00 -6.463326514E-02 1.404017180E-10
 1.200000048E+00 -5.642225966E-02 1.173761227E-10
 1.200000048E+00 -4.926729202E-02 4.209822491E-10
 1.200000048E+00 -4.303215444E-02 1.011092721E-07
 1.200000048E+00 -3.759843111E-02 1.260821864E-05
 1.200000048E+00 -3.286323324E-02 1.111179081E-04
 1.200000048E+00 -2.873690799E-02 3.148164542E-04
 1.200000048E+00 -2.514080144E-02 6.011186051E-04
 1.200000048E+00 -2.200495824E-02 8.873731131E-04
 1.200000048E+00 -1.926806383E-02 1.092188410E-03
 1.200000048E+00 -1.687803119E-02 1.210415619E-03
 1.200000048E+00 -1.479041390E-02 1.289019478E-03
 1.200000048E+00 -1.296673436E-02 1.319823088E-03
 1.200000048E+00 -1.137335505E-02 1.301949844E-03
 1.200000048E+00 -9.980906732E-03 1.237227232E-03
 1.200000048E+00 -8.763763122E-03 1.129419543E-03
 1.200000048E+00 -7.699561305E-03 9.856929537E-04
 1.200000048E+00 -6.768784486E-03 8.162960876E-04
 1.200000048E+00 -5.954416469E-03 6.331782788E-04
 1.200000048E+00 -5.241622217E-03 4.482490185E-04
 1.200000048E+00 -4.617467057E-03 2.715123410E-04
 1.200000048E+00 -4.070675466E-03 1.097155691E-04
 1.200000048E+00 -3.591416869E-03 -3.375610686E-05
 1.200000048E+00 -3.171118908E-03 -1.584380807E-04
 1.200000048E+00 -2.802307252E-03 -2.655627904E-04
 1.200000048E+00 -2.478463110E-03 -3.571238485E-04
 1.200000048E+00 -2.193900989E-03 -4.352117830E-04
 1.200000048E+00 -1.943660667E-03 -5.018458469E-04
 1.200000048E+00 -1.723414403E-03 -5.588993663E-04
 1.200000048E+00 -1.529385685E-03 -6.077724393E-04
 1.200000048E+00 -1.358277281E-03 -6.498325383E-04
 1.200000048E+00 -1.207210822E-03 -6.861328729E-04
 1.200000048E+00 -1.073671854E-03 -7.175274659E-04
 1.200000048E+00 -9.554634453E-04 -7.447992102E-04
 1.200000048E+00 -8.506651502E-04 -7.685751189E-04
 1.200000048E+00 -7.575973286E-04 -7.893534494E-04
 1.200000048E+00 -6.747901789E-04 -8.075996302E-04
 1.200000048E+00 -6.009563804E-04 -8.236413705E-04
 1.200000048E+00 -5.349675776E-04 -8.378220955E-04
 1.200000048E+00 -4.758337745E-04 -8.504011203E-04
 1.200000048E+00 -4.226850579E-04 -8.616031264E-04
 1.200000048E+00 -3.747559094E-04 -8.716247394E-04
 1.200000048E+00 -3.313714988E-04 -8.806144469E-04
 1.200000048E+00 -2.919352846E-04 -8.887278382E-04
 1.200000048E+00 -2.559186541E-04 -8.961035055E-04
 1.200000048E+00 -2.228512603E-04 -9.028217755E-04
 1.200000048E+00 -1.923129748E-04 -9.089995874E-04
 1.200000048E+00 -1.639263937E-04 -9.147101082E-04
 1.200000048E+00 -1.373503474E-04 -9.200367494E-04
 1.200000048E+00 -1.122739923E-04 -9.250407456E-04
 1.200000048E+00 -8.841152157E-05 -9.298025398E-04
 1.200000048E+00 -6.549735554E-05 -9.388195467E-04
 1.200000048E+00 -4.328163413E-05 -9.479980799E-04
 1.200000048E+00 -2.152606976E-05 -9.522427572E-04
 1.200000048E+00 0.000000000E+00 -9.470808436E-04
 1.200000048E+00 2.152607703E-05 -9.419189300E-04
 1.200000048E+00 4.328164869E-05 -9.461455629E-04
 1.200000048E+00 6.549738464E-05 -9.552964475E-04
 1.200000048E+00 8.841155795E-05 -9.642705554E-04
 1.200000048E+00 1.122740359E-04 -9.688324644E-04
 1.200000048E+00 1.373504056E-04 -9.736264474E-04
 1.200000048E+00 1.639264665E-04 -9.786584415E-04
 1.200000048E+00 1.923130476E-04 -9.840278653E-04
 1.200000048E+00 2.228513476E-04 -9.897548007E-04
 1.200000048E+00 2.559187415E-04 -9.959427407E-04
 1.200000048E+00 2.919354301E-04 -1.002612407E-03
 1.200000048E+00 3.313716443E-04 -1.009881962E-03
 1.200000048E+00 3.747560841E-04 -1.017824979E-03
 1.200000048E+00 4.226852325E-04 -1.026505022E-03
 1.200000048E+00 4.758340074E-04 -1.036046073E-03
 1.200000048E+00 5.349678686E-04 -1.046551624E-03
 1.200000048E+00 6.009566714E-04 -1.058138208E-03
 1.200000048E+00 6.747905281E-04 -1.070935279E-03
 1.200000048E+00 7.575977361E-04 -1.085058670E-03
 1.200000048E+00 8.506656159E-04 -1.100662979E-03
 1.200000048E+00 9.554639691E-04 -1.117901411E-03
 1.200000048E+00 1.073672436E-03 -1.136928797E-03
 1.200000048E+00 1.207211521E-03 -1.157865627E-03
 1.200000048E+00 1.358278096E-03 -1.180865336E-03
 1.200000048E+00 1.529386616E-03 -1.206023619E-03
 1.200000048E+00 1.723415568E-03 -1.233456074E-03
 1.200000048E+00 1.943661831E-03 -1.263219514E-03
 1.200000048E+00 2.193902386E-03 -1.295256894E-03
 1.200000048E+00 2.478464739E-03 -1.329360413E-03
 1.200000048E+00 2.802309114E-03 -1.365351141E-03
 1.200000048E+00 3.171121236E-03 -1.402719994E-03
 1.200000048E+00 3.591419430E-03 -1.440760097E-03
 1.200000048E+00 4.070678726E-03 -1.478438964E-03
 1.200000048E+00 4.617470782E-03 -1.514306990E-03
 1.200000048E+00 5.241626408E-03 -1.546308747E-03
 1.200000048E+00 5.954421591E-03 -1.572000794E-03
 1.200000048E+00 6.768790074E-03 -1.588205341E-03
 1.200000048E+00 7.699568290E-03 -1.591051463E-03
 1.200000048E+00 8.763771504E-03 -1.576053444E-03
 1.200000048E+00 9.980916046E-03 -1.538241282E-03
 1.200000048E+00 1.137336716E-02 -1.484817360E-03
 1.200000048E+00 1.296674833E-02 -1.342027681E-03
 1.200000048E+00 1.479043160E-02 -1.139900880E-03
 1.200000048E+00 1.687805541E-02 -8.943264838E-04
 1.200000048E+00 1.926809363E-02 -6.329747266E-04
 1.200000048E+00 2.200499550E-02 -3.923075856E-04
 1.200000048E+00 2.514084801E-02 -1.923953823E-04
 1.200000048E+00 2.873696573E-02 -6.447132182E-05
 1.200000048E+00 3.286330029E-02 -1.309803883E-05
 1.200000048E+00 3.759850189E-02 -1.941843493E-06
 1.200000048E+00 4.303222895E-02 -2.055234773E-07
 1.200000048E+00 4.926737025E-02 -8.783718641E-09
 1.200000048E+00 5.642234161E-02 -8.447154087E-10
 1.200000048E+00 6.463334709E-02 -5.986324769E-10
 1.200000048E+00 7.405699790E-02 -6.100493444E-10
 1.200000048E+00 8.487337828E-02 -6.235321148E-10
 1.200000048E+00 9.728947282E-02 -6.330658220E-10
 1.200000048E+00 1.115432382E-01 -6.364372918E-10
 1.200000048E+00 1.279039085E-01 -6.340868941E-10
 1.200000048E+00 1.466814727E-01 -6.233720207E-10
 1.200000048E+00 1.682363302E-01 -6.027529031E-10
 1.200000048E+00 1.929852217E-01 -5.715191653E-10
 1.200000048E+00 2.214096934E-01 -5.300461736E-10
 1.200000048E+00 2.540646791E-01 -4.790739472E-10
 1.200000048E+00 2.915874124E-01 -4.205130411E-10
 1.200000048E+00 3.347086012E-01 -3.568892126E-10
 1.200000048E+00 3.842663467E-01 -2.912749764E-10
 1.200000048E+00 4.412225485E-01 -2.268994298E-10
 1.200000048E+00 5.066819191E-01 -1.676059985E-10
 1.200000048E+00 5.819134712E-01 -1.150603432E-10
 1.200000048E+00 6.683575511E-01 -7.075989100E-11
 1.200000048E+00 7.676298022E-01 -3.616751343E-11
 1.200000048E+00 8.816572428E-01 -1.032995304E-11
 1.200000048E+00 1.012687564E+00 7.175375311E-12
 1.200000048E+00 1.163307190E+00 1.753765015E-11
 1.200000048E+00 1.336458683E+00 2.230984494E-11
 1.200000048E+00 1.535484076E+00 2.311676892E-11
 1.200000048E+00 1.764189124E+00 2.145882430E-11
 1.200000048E+00 2.026917458E+00 1.874192815E-11
 1.200000048E+00 2.328519583E+00 1.546733228E-11
 1.200000048E+00 2.674518108E+00 1.238341200E-11
 1.200000048E+00 3.071532488E+00 9.680683338E-12
 1.200000048E+00 3.527163506E+00 7.448820206E-12
 1.200000048E+00 4.049818039E+00 5.665720497E-12
 1.200000048E+00 4.648599148E+00 4.272667723E-12
 1.200000048E+00 5.333259106E+00 3.220680016E-12
 1.200000048E+00 6.115376949E+00 2.424389248E-12
 1.200000048E+00 7.009023190E+00 1.830382417E-12
 1.200000048E+00 8.028047562E+00 1.388453697E-12
 1.200000048E+00 9.187080383E+00 1.061345456E-12
 1.200000048E+00 1.050095367E+01 8.208584095E-13
 1.200000048E+00 1.198371601E+01 6.469803534E-13
 1.200000048E+00 1.365006256E+01 5.282236237E-13
 1.200000048E+00 1.552302074E+01 4.518680352E-13
 1.200000048E+00 1.762935829E+01 4.701627542E-13
 1.200000048E+00 2.000000000E+01 0.000000000E+00
ZONE T="x=     1.40"
 1.399999976E+00 -2.000000000E+01 0.000000000E+00
 1.399999976E+00 -1.762935829E+01 3.007886095E-13
 1.399999976E+00 -1.552302074E+01 2.986211267E-13
 1.399999976E+00 -1.365006256E+01 3.471978293E-13
 1.399999976E+00 -1.198371601E+01 4.172295918E-13
 1.399999976E+00 -1.050095367E+01 5.122078976E-13
 1.399999976E+00 -9.187080383E+00 6.341216072E-13
 1.399999976E+00 -8.028047562E+00 7.855326090E-13
 1.399999976E+00 -7.009023190E+00 9.694169295E-13
 1.399999976E+00 -6.115376949E+00 1.188443549E-12
 1.399999976E+00 -5.333259106E+00 1.446285366E-12
 1.399999976E+00 -4.648599148E+00 1.737036188E-12
 1.399999976E+00 -4.049817562E+00 2.071655564E-12
 1.399999976E+00 -3.527163267E+00 2.453171347E-12
 1.399999976E+00 -3.071532488E+00 2.904888569E-12
 1.399999976E+00 -2.674517870E+00 3.481791895E-12
 1.399999976E+00 -2.328519583E+00 4.290482466E-12