VARIABLES = "r/D","(T-T<sub><math>%</sub></math>)/<greek>D</greek>T","T'/<greek>D</greek>T" "x1/D" "x2/D"
ZONE T = "Expt"
    0.000000   0.728252   0.111410   8.000000   8.000000
    0.100000   0.731235   0.116193   8.000000   8.000000
    0.200000   0.720154   0.115464   8.000000   8.000000
    0.350000   0.684355   0.124801   8.000000   8.000000
    0.500000   0.623837   0.128752   8.000000   8.000000
    0.650000   0.557779   0.146728   8.000000   8.000000
    0.800000   0.373242   0.131601   8.000000   8.000000
    1.000000   0.359178   0.138603   8.000000   8.000000
    1.200000   0.267975   0.129051   8.000000   8.000000
    1.400000   0.175919   0.106741   8.000000   8.000000
VARIABLES = "r/D","(T-T<sub><math>%</sub></math>)/<greek>D</greek>T","T'/<greek>D</greek>T" "x1/D" "x2/D"
ZONE T = "Wind-US"
   0.000000   0.930755   0.000000   8.000000   8.000000
   0.015075   0.930116   0.000000   8.000000   8.000000
   0.030151   0.928185   0.000000   8.000000   8.000000
   0.045226   0.925047   0.000000   8.000000   8.000000
   0.060302   0.920807   0.000000   8.000000   8.000000
   0.075377   0.915601   0.000000   8.000000   8.000000
   0.090452   0.909571   0.000000   8.000000   8.000000
   0.105528   0.902841   0.000000   8.000000   8.000000
   0.120603   0.895524   0.000000   8.000000   8.000000
   0.135678   0.887730   0.000000   8.000000   8.000000
   0.150754   0.879528   0.000000   8.000000   8.000000
   0.165829   0.870996   0.000000   8.000000   8.000000
   0.180905   0.862189   0.000000   8.000000   8.000000
   0.195980   0.853146   0.000000   8.000000   8.000000
   0.211055   0.843910   0.000000   8.000000   8.000000
   0.226130   0.834511   0.000000   8.000000   8.000000
   0.241207   0.824966   0.000000   8.000000   8.000000
   0.256281   0.815300   0.000000   8.000000   8.000000
   0.271356   0.805532   0.000000   8.000000   8.000000
   0.286433   0.795674   0.000000   8.000000   8.000000
   0.301508   0.785734   0.000000   8.000000   8.000000
   0.316583   0.775730   0.000000   8.000000   8.000000
   0.331657   0.765665   0.000000   8.000000   8.000000
   0.346734   0.755554   0.000000   8.000000   8.000000
   0.361809   0.745395   0.000000   8.000000   8.000000
   0.376884   0.735197   0.000000   8.000000   8.000000
   0.391961   0.724970   0.000000   8.000000   8.000000
   0.407035   0.714721   0.000000   8.000000   8.000000
   0.422110   0.704446   0.000000   8.000000   8.000000
   0.437185   0.694163   0.000000   8.000000   8.000000
   0.452262   0.683867   0.000000   8.000000   8.000000
   0.467337   0.673562   0.000000   8.000000   8.000000
   0.482411   0.663262   0.000000   8.000000   8.000000
   0.497488   0.652957   0.000000   8.000000   8.000000
   0.512563   0.642665   0.000000   8.000000   8.000000
   0.527638   0.632378   0.000000   8.000000   8.000000
   0.542713   0.622107   0.000000   8.000000   8.000000
   0.557789   0.611850   0.000000   8.000000   8.000000
   0.572864   0.601618   0.000000   8.000000   8.000000
   0.587939   0.591408   0.000000   8.000000   8.000000
   0.603016   0.581227   0.000000   8.000000   8.000000
   0.618091   0.571073   0.000000   8.000000   8.000000
   0.633165   0.560953   0.000000   8.000000   8.000000
   0.648242   0.550867   0.000000   8.000000   8.000000
   0.663317   0.540820   0.000000   8.000000   8.000000
   0.678392   0.530815   0.000000   8.000000   8.000000
   0.693467   0.520854   0.000000   8.000000   8.000000
   0.708543   0.510940   0.000000   8.000000   8.000000
   0.723618   0.501073   0.000000   8.000000   8.000000
   0.738693   0.491262   0.000000   8.000000   8.000000
   0.753770   0.481506   0.000000   8.000000   8.000000
   0.768844   0.471807   0.000000   8.000000   8.000000
   0.783919   0.462167   0.000000   8.000000   8.000000
   0.798994   0.452592   0.000000   8.000000   8.000000
   0.814071   0.443077   0.000000   8.000000   8.000000
   0.829146   0.433631   0.000000   8.000000   8.000000
   0.844220   0.424253   0.000000   8.000000   8.000000
   0.859297   0.414944   0.000000   8.000000   8.000000
   0.874372   0.405704   0.000000   8.000000   8.000000
   0.889447   0.396536   0.000000   8.000000   8.000000
   0.904522   0.387446   0.000000   8.000000   8.000000
   0.919598   0.378425   0.000000   8.000000   8.000000
   0.934673   0.369485   0.000000   8.000000   8.000000
   0.949748   0.360622   0.000000   8.000000   8.000000
   0.964825   0.351841   0.000000   8.000000   8.000000
   0.979900   0.343142   0.000000   8.000000   8.000000
   0.994974   0.334524   0.000000   8.000000   8.000000
   1.010051   0.325983   0.000000   8.000000   8.000000
   1.025126   0.317528   0.000000   8.000000   8.000000
   1.040201   0.309163   0.000000   8.000000   8.000000
   1.055276   0.300880   0.000000   8.000000   8.000000
   1.070352   0.292687   0.000000   8.000000   8.000000
   1.085427   0.284579   0.000000   8.000000   8.000000
   1.100502   0.276558   0.000000   8.000000   8.000000
   1.115579   0.268622   0.000000   8.000000   8.000000
   1.130654   0.260785   0.000000   8.000000   8.000000
   1.145728   0.253034   0.000000   8.000000   8.000000
   1.160803   0.245365   0.000000   8.000000   8.000000
   1.175880   0.237798   0.000000   8.000000   8.000000
   1.190955   0.230322   0.000000   8.000000   8.000000
   1.206030   0.222936   0.000000   8.000000   8.000000
   1.221106   0.215640   0.000000   8.000000   8.000000
   1.236181   0.208433   0.000000   8.000000   8.000000
   1.251256   0.201322   0.000000   8.000000   8.000000
   1.266331   0.194305   0.000000   8.000000   8.000000
   1.281407   0.187382   0.000000   8.000000   8.000000
   1.296482   0.180554   0.000000   8.000000   8.000000
   1.311557   0.173824   0.000000   8.000000   8.000000
   1.326634   0.167189   0.000000   8.000000   8.000000
   1.341709   0.160648   0.000000   8.000000   8.000000
   1.356783   0.154202   0.000000   8.000000   8.000000
   1.371860   0.147850   0.000000   8.000000   8.000000
   1.386935   0.141584   0.000000   8.000000   8.000000
   1.402010   0.135412   0.000000   8.000000   8.000000
   1.417085   0.129330   0.000000   8.000000   8.000000
   1.432161   0.123343   0.000000   8.000000   8.000000
   1.447236   0.117459   0.000000   8.000000   8.000000
   1.462311   0.111665   0.000000   8.000000   8.000000
   1.477388   0.105949   0.000000   8.000000   8.000000
   1.492463   0.100313   0.000000   8.000000   8.000000
   1.507537   0.094815   0.000000   8.000000   8.000000
   1.522612   0.089391   0.000000   8.000000   8.000000
   1.537689   0.084043   0.000000   8.000000   8.000000
   1.552764   0.078816   0.000000   8.000000   8.000000
   1.567839   0.073687   0.000000   8.000000   8.000000
   1.582915   0.068627   0.000000   8.000000   8.000000
   1.597990   0.063708   0.000000   8.000000   8.000000
   1.613065   0.058884   0.000000   8.000000   8.000000
   1.628142   0.054137   0.000000   8.000000   8.000000
   1.643217   0.049554   0.000000   8.000000   8.000000
   1.658291   0.045030   0.000000   8.000000   8.000000
   1.673366   0.040670   0.000000   8.000000   8.000000
   1.688443   0.036416   0.000000   8.000000   8.000000
   1.703518   0.032288   0.000000   8.000000   8.000000
   1.718593   0.028335   0.000000   8.000000   8.000000
   1.733669   0.024472   0.000000   8.000000   8.000000
   1.748744   0.020871   0.000000   8.000000   8.000000
   1.763819   0.017330   0.000000   8.000000   8.000000
   1.778894   0.014180   0.000000   8.000000   8.000000
   1.793970   0.011082   0.000000   8.000000   8.000000
   1.809045   0.008541   0.000000   8.000000   8.000000
   1.824120   0.006069   0.000000   8.000000   8.000000
   1.839197   0.004378   0.000000   8.000000   8.000000
   1.854272   0.002854   0.000000   8.000000   8.000000
   1.869346   0.001888   0.000000   8.000000   8.000000
   1.884421   0.001185   0.000000   8.000000   8.000000
   1.899498   0.000704   0.000000   8.000000   8.000000
   1.914573   0.000472   0.000000   8.000000   8.000000
   1.929648   0.000275   0.000000   8.000000   8.000000
   1.944724   0.000215   0.000000   8.000000   8.000000
   1.959799   0.000155   0.000000   8.000000   8.000000
   1.974882   0.000120   0.000000   8.000000   8.000000
   1.989941   0.000099   0.000000   8.000000   8.000000
   2.005020   0.000073   0.000000   8.000000   8.000000
   2.020098   0.000056   0.000000   8.000000   8.000000
   2.035177   0.000039   0.000000   8.000000   8.000000
   2.050256   0.000021   0.000000   8.000000   8.000000
   2.065335   0.000004   0.000000   8.000000   8.000000
   2.080394  -0.000009   0.000000   8.000000   8.000000
   2.095472  -0.000009   0.000000   8.000000   8.000000
   2.110551  -0.000013   0.000000   8.000000   8.000000
   2.125630  -0.000009   0.000000   8.000000   8.000000
   2.140709   0.000009   0.000000   8.000000   8.000000
   2.155787   0.000030   0.000000   8.000000   8.000000
   2.170846   0.000043   0.000000   8.000000   8.000000
   2.185925   0.000043   0.000000   8.000000   8.000000
   2.201004   0.000047   0.000000   8.000000   8.000000
   2.216083   0.000051   0.000000   8.000000   8.000000
   2.231161   0.000051   0.000000   8.000000   8.000000
   2.246240   0.000051   0.000000   8.000000   8.000000
   2.261299   0.000056   0.000000   8.000000   8.000000
   2.276378   0.000060   0.000000   8.000000   8.000000
   2.291457   0.000069   0.000000   8.000000   8.000000
   2.306535   0.000073   0.000000   8.000000   8.000000
   2.321614   0.000069   0.000000   8.000000   8.000000
   2.336693   0.000064   0.000000   8.000000   8.000000
   2.351752   0.000060   0.000000   8.000000   8.000000
   2.366831   0.000051   0.000000   8.000000   8.000000
   2.381909   0.000043   0.000000   8.000000   8.000000
   2.396988   0.000034   0.000000   8.000000   8.000000
   2.412067   0.000026   0.000000   8.000000   8.000000
   2.427126   0.000021   0.000000   8.000000   8.000000
   2.442205   0.000017   0.000000   8.000000   8.000000
   2.457283   0.000013   0.000000   8.000000   8.000000
   2.472362   0.000021   0.000000   8.000000   8.000000
   2.487441   0.000069   0.000000   8.000000   8.000000
   2.502520   0.000120   0.000000   8.000000   8.000000
   2.517579   0.000167   0.000000   8.000000   8.000000
   2.532657   0.000210   0.000000   8.000000   8.000000
   2.547736   0.000232   0.000000   8.000000   8.000000
   2.562815   0.000258   0.000000   8.000000   8.000000
   2.577894   0.000279   0.000000   8.000000   8.000000
   2.592973   0.000300   0.000000   8.000000   8.000000
   2.608032   0.000300   0.000000   8.000000   8.000000
   2.623110   0.000305   0.000000   8.000000   8.000000
   2.638189   0.000305   0.000000   8.000000   8.000000
   2.653268   0.000309   0.000000   8.000000   8.000000
   2.668347   0.000313   0.000000   8.000000   8.000000
   2.683425   0.000318   0.000000   8.000000   8.000000
   2.698484   0.000318   0.000000   8.000000   8.000000
   2.713563   0.000322   0.000000   8.000000   8.000000
   2.728642   0.000326   0.000000   8.000000   8.000000
   2.743721   0.000326   0.000000   8.000000   8.000000
   2.758799   0.000330   0.000000   8.000000   8.000000
   2.773878   0.000330   0.000000   8.000000   8.000000
   2.788937   0.000335   0.000000   8.000000   8.000000
   2.804016   0.000348   0.000000   8.000000   8.000000
   2.819094   0.000356   0.000000   8.000000   8.000000
   2.834173   0.000365   0.000000   8.000000   8.000000
   2.849252   0.000378   0.000000   8.000000   8.000000
   2.864331   0.000382   0.000000   8.000000   8.000000
   2.879390   0.000378   0.000000   8.000000   8.000000
   2.894469   0.000378   0.000000   8.000000   8.000000
   2.909547   0.000378   0.000000   8.000000   8.000000
   2.924626   0.000373   0.000000   8.000000   8.000000
   2.939705   0.000373   0.000000   8.000000   8.000000
   2.954783   0.000378   0.000000   8.000000   8.000000
   2.969842   0.000378   0.000000   8.000000   8.000000
   2.984921   0.000382   0.000000   8.000000   8.000000
   3.000000   0.000382   0.000000   8.000000   8.000000
VARIABLES = "r/D","(T-T<sub><math>%</sub></math>)/<greek>D</greek>T","T'/<greek>D</greek>T" "x1/D" "x2/D"
ZONE T = "FUN3D"
   0.001000   0.927757   0.000000   8.000000   8.000000
   0.003002   0.927732   0.000000   8.000000   8.000000
   0.005008   0.927695   0.000000   8.000000   8.000000
   0.007018   0.927621   0.000000   8.000000   8.000000
   0.009032   0.927521   0.000000   8.000000   8.000000
   0.011050   0.927403   0.000000   8.000000   8.000000
   0.013073   0.927261   0.000000   8.000000   8.000000
   0.015101   0.927087   0.000000   8.000000   8.000000
   0.017133   0.926901   0.000000   8.000000   8.000000
   0.019170   0.926691   0.000000   8.000000   8.000000
   0.021211   0.926443   0.000000   8.000000   8.000000
   0.023258   0.926182   0.000000   8.000000   8.000000
   0.025310   0.925897   0.000000   8.000000   8.000000
   0.027367   0.925575   0.000000   8.000000   8.000000
   0.029429   0.925240   0.000000   8.000000   8.000000
   0.031496   0.924880   0.000000   8.000000   8.000000
   0.033569   0.924496   0.000000   8.000000   8.000000
   0.035647   0.924087   0.000000   8.000000   8.000000
   0.037730   0.923653   0.000000   8.000000   8.000000
   0.039819   0.923194   0.000000   8.000000   8.000000
   0.041914   0.922717   0.000000   8.000000   8.000000
   0.044014   0.922215   0.000000   8.000000   8.000000
   0.046120   0.921688   0.000000   8.000000   8.000000
   0.048231   0.921136   0.000000   8.000000   8.000000
   0.050348   0.920565   0.000000   8.000000   8.000000
   0.052471   0.919970   0.000000   8.000000   8.000000
   0.054599   0.919350   0.000000   8.000000   8.000000
   0.056733   0.918712   0.000000   8.000000   8.000000
   0.058872   0.918049   0.000000   8.000000   8.000000
   0.061017   0.917367   0.000000   8.000000   8.000000
   0.063168   0.916660   0.000000   8.000000   8.000000
   0.065324   0.915929   0.000000   8.000000   8.000000
   0.067485   0.915185   0.000000   8.000000   8.000000
   0.069652   0.914416   0.000000   8.000000   8.000000
   0.071825   0.913622   0.000000   8.000000   8.000000
   0.074002   0.912817   0.000000   8.000000   8.000000
   0.076185   0.911986   0.000000   8.000000   8.000000
   0.078373   0.911137   0.000000   8.000000   8.000000
   0.080566   0.910268   0.000000   8.000000   8.000000
   0.082764   0.909382   0.000000   8.000000   8.000000
   0.084966   0.908477   0.000000   8.000000   8.000000
   0.087173   0.907559   0.000000   8.000000   8.000000
   0.089385   0.906617   0.000000   8.000000   8.000000
   0.091601   0.905656   0.000000   8.000000   8.000000
   0.093822   0.904683   0.000000   8.000000   8.000000
   0.096046   0.903691   0.000000   8.000000   8.000000
   0.098274   0.902681   0.000000   8.000000   8.000000
   0.100506   0.901658   0.000000   8.000000   8.000000
   0.102742   0.900616   0.000000   8.000000   8.000000
   0.104981   0.899562   0.000000   8.000000   8.000000
   0.107224   0.898496   0.000000   8.000000   8.000000
   0.109469   0.897411   0.000000   8.000000   8.000000
   0.111717   0.896314   0.000000   8.000000   8.000000
   0.113968   0.895204   0.000000   8.000000   8.000000
   0.116222   0.894082   0.000000   8.000000   8.000000
   0.118477   0.892941   0.000000   8.000000   8.000000
   0.120734   0.891788   0.000000   8.000000   8.000000
   0.122994   0.890629   0.000000   8.000000   8.000000
   0.125255   0.889457   0.000000   8.000000   8.000000
   0.127518   0.888273   0.000000   8.000000   8.000000
   0.129781   0.887077   0.000000   8.000000   8.000000
   0.132046   0.885874   0.000000   8.000000   8.000000
   0.134310   0.884659   0.000000   8.000000   8.000000
   0.136576   0.883432   0.000000   8.000000   8.000000
   0.138841   0.882204   0.000000   8.000000   8.000000
   0.141107   0.880958   0.000000   8.000000   8.000000
   0.143373   0.879706   0.000000   8.000000   8.000000
   0.145637   0.878447   0.000000   8.000000   8.000000
   0.147902   0.877183   0.000000   8.000000   8.000000
   0.150164   0.875906   0.000000   8.000000   8.000000
   0.152426   0.874622   0.000000   8.000000   8.000000
   0.154687   0.873339   0.000000   8.000000   8.000000
   0.156945   0.872037   0.000000   8.000000   8.000000
   0.159202   0.870742   0.000000   8.000000   8.000000
   0.161457   0.869433   0.000000   8.000000   8.000000
   0.163708   0.868125   0.000000   8.000000   8.000000
   0.165958   0.866805   0.000000   8.000000   8.000000
   0.168205   0.865491   0.000000   8.000000   8.000000
   0.170448   0.864164   0.000000   8.000000   8.000000
   0.172689   0.862837   0.000000   8.000000   8.000000
   0.174927   0.861498   0.000000   8.000000   8.000000
   0.177160   0.860165   0.000000   8.000000   8.000000
   0.179390   0.858826   0.000000   8.000000   8.000000
   0.181615   0.857481   0.000000   8.000000   8.000000
   0.183837   0.856142   0.000000   8.000000   8.000000
   0.186053   0.854791   0.000000   8.000000   8.000000
   0.188267   0.853445   0.000000   8.000000   8.000000
   0.190474   0.852100   0.000000   8.000000   8.000000
   0.192677   0.850743   0.000000   8.000000   8.000000
   0.194875   0.849391   0.000000   8.000000   8.000000
   0.197068   0.848033   0.000000   8.000000   8.000000
   0.199256   0.846682   0.000000   8.000000   8.000000
   0.201439   0.845324   0.000000   8.000000   8.000000
   0.203616   0.843967   0.000000   8.000000   8.000000
   0.205787   0.842615   0.000000   8.000000   8.000000
   0.207953   0.841251   0.000000   8.000000   8.000000
   0.210112   0.839900   0.000000   8.000000   8.000000
   0.212267   0.838542   0.000000   8.000000   8.000000
   0.214415   0.837185   0.000000   8.000000   8.000000
   0.216557   0.835833   0.000000   8.000000   8.000000
   0.218692   0.834475   0.000000   8.000000   8.000000
   0.220823   0.833118   0.000000   8.000000   8.000000
   0.222946   0.831766   0.000000   8.000000   8.000000
   0.225064   0.830415   0.000000   8.000000   8.000000
   0.227175   0.829063   0.000000   8.000000   8.000000
   0.229280   0.827712   0.000000   8.000000   8.000000
   0.231379   0.826373   0.000000   8.000000   8.000000
   0.233471   0.825022   0.000000   8.000000   8.000000
   0.235558   0.823676   0.000000   8.000000   8.000000
   0.237638   0.822331   0.000000   8.000000   8.000000
   0.239712   0.820992   0.000000   8.000000   8.000000
   0.241780   0.819653   0.000000   8.000000   8.000000
   0.243841   0.818314   0.000000   8.000000   8.000000
   0.245897   0.816975   0.000000   8.000000   8.000000
   0.247946   0.815636   0.000000   8.000000   8.000000
   0.249989   0.814309   0.000000   8.000000   8.000000
   0.252026   0.812976   0.000000   8.000000   8.000000
   0.254057   0.811643   0.000000   8.000000   8.000000
   0.256083   0.810317   0.000000   8.000000   8.000000
   0.258102   0.808990   0.000000   8.000000   8.000000
   0.260116   0.807676   0.000000   8.000000   8.000000
   0.262125   0.806349   0.000000   8.000000   8.000000
   0.264127   0.805035   0.000000   8.000000   8.000000
   0.266124   0.803708   0.000000   8.000000   8.000000
   0.268117   0.802394   0.000000   8.000000   8.000000
   0.270104   0.801080   0.000000   8.000000   8.000000
   0.272085   0.799772   0.000000   8.000000   8.000000
   0.274062   0.798463   0.000000   8.000000   8.000000
   0.276033   0.797149   0.000000   8.000000   8.000000
   0.278001   0.795847   0.000000   8.000000   8.000000
   0.279963   0.794546   0.000000   8.000000   8.000000
   0.281920   0.793238   0.000000   8.000000   8.000000
   0.283874   0.791936   0.000000   8.000000   8.000000
   0.285823   0.790640   0.000000   8.000000   8.000000
   0.287768   0.789338   0.000000   8.000000   8.000000
   0.289709   0.788036   0.000000   8.000000   8.000000
   0.291647   0.786747   0.000000   8.000000   8.000000
   0.293579   0.785445   0.000000   8.000000   8.000000
   0.295509   0.784156   0.000000   8.000000   8.000000
   0.297436   0.782866   0.000000   8.000000   8.000000
   0.299360   0.781577   0.000000   8.000000   8.000000
   0.301279   0.780287   0.000000   8.000000   8.000000
   0.303196   0.778998   0.000000   8.000000   8.000000
   0.305111   0.777708   0.000000   8.000000   8.000000
   0.307023   0.776419   0.000000   8.000000   8.000000
   0.308932   0.775129   0.000000   8.000000   8.000000
   0.310839   0.773840   0.000000   8.000000   8.000000
   0.312744   0.772563   0.000000   8.000000   8.000000
   0.314647   0.771273   0.000000   8.000000   8.000000
   0.316548   0.769984   0.000000   8.000000   8.000000
   0.318447   0.768707   0.000000   8.000000   8.000000
   0.320345   0.767417   0.000000   8.000000   8.000000
   0.322241   0.766128   0.000000   8.000000   8.000000
   0.324136   0.764851   0.000000   8.000000   8.000000
   0.326030   0.763561   0.000000   8.000000   8.000000
   0.327924   0.762278   0.000000   8.000000   8.000000
   0.329816   0.760995   0.000000   8.000000   8.000000
   0.331708   0.759705   0.000000   8.000000   8.000000
   0.333600   0.758416   0.000000   8.000000   8.000000
   0.335492   0.757139   0.000000   8.000000   8.000000
   0.337384   0.755849   0.000000   8.000000   8.000000
   0.339275   0.754560   0.000000   8.000000   8.000000
   0.341167   0.753270   0.000000   8.000000   8.000000
   0.343060   0.751981   0.000000   8.000000   8.000000
   0.344953   0.750691   0.000000   8.000000   8.000000
   0.346847   0.749390   0.000000   8.000000   8.000000
   0.348742   0.748100   0.000000   8.000000   8.000000
   0.350638   0.746805   0.000000   8.000000   8.000000
   0.352535   0.745509   0.000000   8.000000   8.000000
   0.354434   0.744207   0.000000   8.000000   8.000000
   0.356335   0.742905   0.000000   8.000000   8.000000
   0.358238   0.741603   0.000000   8.000000   8.000000
   0.360143   0.740301   0.000000   8.000000   8.000000
   0.362049   0.739000   0.000000   8.000000   8.000000
   0.363958   0.737685   0.000000   8.000000   8.000000
   0.365869   0.736384   0.000000   8.000000   8.000000
   0.367784   0.735069   0.000000   8.000000   8.000000
   0.369700   0.733755   0.000000   8.000000   8.000000
   0.371621   0.732428   0.000000   8.000000   8.000000
   0.373544   0.731114   0.000000   8.000000   8.000000
   0.375471   0.729787   0.000000   8.000000   8.000000
   0.377400   0.728461   0.000000   8.000000   8.000000
   0.379334   0.727134   0.000000   8.000000   8.000000
   0.381272   0.725807   0.000000   8.000000   8.000000
   0.383213   0.724468   0.000000   8.000000   8.000000
   0.385159   0.723129   0.000000   8.000000   8.000000
   0.387109   0.721790   0.000000   8.000000   8.000000
   0.389064   0.720439   0.000000   8.000000   8.000000
   0.391023   0.719094   0.000000   8.000000   8.000000
   0.392987   0.717736   0.000000   8.000000   8.000000
   0.394956   0.716384   0.000000   8.000000   8.000000
   0.396930   0.715021   0.000000   8.000000   8.000000
   0.398910   0.713657   0.000000   8.000000   8.000000
   0.400894   0.712293   0.000000   8.000000   8.000000
   0.402885   0.710917   0.000000   8.000000   8.000000
   0.404882   0.709540   0.000000   8.000000   8.000000
   0.406884   0.708164   0.000000   8.000000   8.000000
   0.408893   0.706775   0.000000   8.000000   8.000000
   0.410908   0.705387   0.000000   8.000000   8.000000
   0.412930   0.703986   0.000000   8.000000   8.000000
   0.414958   0.702585   0.000000   8.000000   8.000000
   0.416993   0.701184   0.000000   8.000000   8.000000
   0.419035   0.699770   0.000000   8.000000   8.000000
   0.421085   0.698357   0.000000   8.000000   8.000000
   0.423142   0.696931   0.000000   8.000000   8.000000
   0.425207   0.695505   0.000000   8.000000   8.000000
   0.427278   0.694079   0.000000   8.000000   8.000000
   0.429359   0.692641   0.000000   8.000000   8.000000
   0.431446   0.691190   0.000000   8.000000   8.000000
   0.433543   0.689746   0.000000   8.000000   8.000000
   0.435648   0.688289   0.000000   8.000000   8.000000
   0.437762   0.686826   0.000000   8.000000   8.000000
   0.439884   0.685363   0.000000   8.000000   8.000000
   0.442015   0.683888   0.000000   8.000000   8.000000
   0.444156   0.682412   0.000000   8.000000   8.000000
   0.446306   0.680924   0.000000   8.000000   8.000000
   0.448465   0.679424   0.000000   8.000000   8.000000
   0.450635   0.677924   0.000000   8.000000   8.000000
   0.452814   0.676424   0.000000   8.000000   8.000000
   0.455002   0.674911   0.000000   8.000000   8.000000
   0.457202   0.673386   0.000000   8.000000   8.000000
   0.459412   0.671855   0.000000   8.000000   8.000000
   0.461633   0.670323   0.000000   8.000000   8.000000
   0.463865   0.668774   0.000000   8.000000   8.000000
   0.466108   0.667224   0.000000   8.000000   8.000000
   0.468362   0.665661   0.000000   8.000000   8.000000
   0.470627   0.664099   0.000000   8.000000   8.000000
   0.472905   0.662525   0.000000   8.000000   8.000000
   0.475195   0.660938   0.000000   8.000000   8.000000
   0.477496   0.659350   0.000000   8.000000   8.000000
   0.479810   0.657751   0.000000   8.000000   8.000000
   0.482136   0.656139   0.000000   8.000000   8.000000
   0.484476   0.654528   0.000000   8.000000   8.000000
   0.486828   0.652891   0.000000   8.000000   8.000000
   0.489193   0.651267   0.000000   8.000000   8.000000
   0.491573   0.649618   0.000000   8.000000   8.000000
   0.493966   0.647969   0.000000   8.000000   8.000000
   0.496372   0.646301   0.000000   8.000000   8.000000
   0.498794   0.644633   0.000000   8.000000   8.000000
   0.501230   0.642947   0.000000   8.000000   8.000000
   0.503680   0.641255   0.000000   8.000000   8.000000
   0.506145   0.639550   0.000000   8.000000   8.000000
   0.508625   0.637839   0.000000   8.000000   8.000000
   0.511120   0.636115   0.000000   8.000000   8.000000
   0.513630   0.634392   0.000000   8.000000   8.000000
   0.516160   0.632644   0.000000   8.000000   8.000000
   0.518700   0.630889   0.000000   8.000000   8.000000
   0.521260   0.629123   0.000000   8.000000   8.000000
   0.523840   0.627349   0.000000   8.000000   8.000000
   0.526430   0.625564   0.000000   8.000000   8.000000
   0.529040   0.623766   0.000000   8.000000   8.000000
   0.531670   0.621956   0.000000   8.000000   8.000000
   0.534315   0.620134   0.000000   8.000000   8.000000
   0.536980   0.618299   0.000000   8.000000   8.000000
   0.539665   0.616451   0.000000   8.000000   8.000000
   0.542365   0.614591   0.000000   8.000000   8.000000
   0.545090   0.612725   0.000000   8.000000   8.000000
   0.547830   0.610847   0.000000   8.000000   8.000000
   0.550590   0.608950   0.000000   8.000000   8.000000
   0.553370   0.607041   0.000000   8.000000   8.000000
   0.556170   0.605119   0.000000   8.000000   8.000000
   0.558990   0.603185   0.000000   8.000000   8.000000
   0.561835   0.601238   0.000000   8.000000   8.000000
   0.564695   0.599266   0.000000   8.000000   8.000000
   0.567580   0.597295   0.000000   8.000000   8.000000
   0.570490   0.595299   0.000000   8.000000   8.000000
   0.573420   0.593303   0.000000   8.000000   8.000000
   0.576375   0.591282   0.000000   8.000000   8.000000
   0.579350   0.589248   0.000000   8.000000   8.000000
   0.582350   0.587196   0.000000   8.000000   8.000000
   0.585375   0.585132   0.000000   8.000000   8.000000
   0.588425   0.583049   0.000000   8.000000   8.000000
   0.591495   0.580954   0.000000   8.000000   8.000000
   0.594595   0.578846   0.000000   8.000000   8.000000
   0.597720   0.576713   0.000000   8.000000   8.000000
   0.600870   0.574575   0.000000   8.000000   8.000000
   0.604050   0.572411   0.000000   8.000000   8.000000
   0.607255   0.570241   0.000000   8.000000   8.000000
   0.610485   0.568047   0.000000   8.000000   8.000000
   0.613745   0.565827   0.000000   8.000000   8.000000
   0.617035   0.563608   0.000000   8.000000   8.000000
   0.620355   0.561351   0.000000   8.000000   8.000000
   0.623705   0.559095   0.000000   8.000000   8.000000
   0.627085   0.556801   0.000000   8.000000   8.000000
   0.630500   0.554495   0.000000   8.000000   8.000000
   0.633945   0.552176   0.000000   8.000000   8.000000
   0.637425   0.549833   0.000000   8.000000   8.000000
   0.640940   0.547465   0.000000   8.000000   8.000000
   0.644485   0.545072   0.000000   8.000000   8.000000
   0.648070   0.542667   0.000000   8.000000   8.000000
   0.651690   0.540237   0.000000   8.000000   8.000000
   0.655345   0.537782   0.000000   8.000000   8.000000
   0.659040   0.535314   0.000000   8.000000   8.000000
   0.662775   0.532810   0.000000   8.000000   8.000000
   0.666550   0.530293   0.000000   8.000000   8.000000
   0.670360   0.527751   0.000000   8.000000   8.000000
   0.674220   0.525172   0.000000   8.000000   8.000000
   0.678115   0.522581   0.000000   8.000000   8.000000
   0.682055   0.519965   0.000000   8.000000   8.000000
   0.686040   0.517311   0.000000   8.000000   8.000000
   0.690075   0.514646   0.000000   8.000000   8.000000
   0.694150   0.511943   0.000000   8.000000   8.000000
   0.698275   0.509215   0.000000   8.000000   8.000000
   0.702450   0.506463   0.000000   8.000000   8.000000
   0.706675   0.503673   0.000000   8.000000   8.000000
   0.710950   0.500858   0.000000   8.000000   8.000000
   0.715280   0.498019   0.000000   8.000000   8.000000
   0.719665   0.495143   0.000000   8.000000   8.000000
   0.724100   0.492241   0.000000   8.000000   8.000000
   0.728595   0.489303   0.000000   8.000000   8.000000
   0.733145   0.486333   0.000000   8.000000   8.000000
   0.737755   0.483327   0.000000   8.000000   8.000000
   0.742425   0.480295   0.000000   8.000000   8.000000
   0.747160   0.477227   0.000000   8.000000   8.000000
   0.751950   0.474121   0.000000   8.000000   8.000000
   0.756810   0.470978   0.000000   8.000000   8.000000
   0.761735   0.467804   0.000000   8.000000   8.000000
   0.766725   0.464599   0.000000   8.000000   8.000000