title="tecplot surface data vs x (2D)"
variables="x","z","cp","skinfr","yplus"
zone t=nb_6_seg_1, i=     447, f=point
  0.100000000000000E-02  0.000000000000000E+00 -0.190505566153140E-02  0.948448388178862E-02  0.167604307059370E+00
  0.200196836704000E-02  0.000000000000000E+00  0.690360952207029E-02  0.580971309703794E-02  0.133588798684502E+00
  0.300592441746000E-02  0.000000000000000E+00  0.600528210668662E-02  0.558397751880855E-02  0.130978335070245E+00
  0.401188759785000E-02  0.000000000000000E+00  0.778890139115283E-02  0.542735952260526E-02  0.129130243901280E+00
  0.501987748663000E-02  0.000000000000000E+00  0.809322927797229E-02  0.529389198057512E-02  0.127534931263836E+00
  0.602991379576000E-02  0.000000000000000E+00  0.863081225237800E-02  0.518744460284229E-02  0.126247555686329E+00
  0.704201637241000E-02  0.000000000000000E+00  0.884390511231490E-02  0.510221592492919E-02  0.125207112722753E+00
  0.805620520068000E-02  0.000000000000000E+00  0.904946532754541E-02  0.503346760125843E-02  0.124361304665492E+00
  0.907250040328000E-02  0.000000000000000E+00  0.916305102554344E-02  0.497654361602496E-02  0.123656486753949E+00
  0.100909222433000E-01  0.000000000000000E+00  0.924964486730724E-02  0.492813144467918E-02  0.123053791888716E+00
  0.111114911260000E-01  0.000000000000000E+00  0.929928363913035E-02  0.488581273539258E-02  0.122524467433790E+00
  0.121342276006000E-01  0.000000000000000E+00  0.932874877839535E-02  0.484797456056664E-02  0.122049193886382E+00
  0.131591523619000E-01  0.000000000000000E+00  0.933962687096493E-02  0.481351442045570E-02  0.121614699475950E+00
  0.141862862524000E-01  0.000000000000000E+00  0.933784575393329E-02  0.478168550247369E-02  0.121211969736930E+00
  0.152156502642000E-01  0.000000000000000E+00  0.932577444728062E-02  0.475196352058621E-02  0.120834665665363E+00
  0.162472655402000E-01  0.000000000000000E+00  0.930615126079218E-02  0.472397371252196E-02  0.120478253384630E+00
  0.172811533771000E-01  0.000000000000000E+00  0.928063341115726E-02  0.469743949798169E-02  0.120139386510138E+00
  0.183173352262000E-01  0.000000000000000E+00  0.925066157848280E-02  0.467215186848245E-02  0.119815537156380E+00
  0.193558326962000E-01  0.000000000000000E+00  0.921727487086204E-02  0.464794866339593E-02  0.119504745137574E+00
  0.203966675547000E-01  0.000000000000000E+00  0.918128594289731E-02  0.462470151106598E-02  0.119205459929724E+00
  0.214398617304000E-01  0.000000000000000E+00  0.914334928110914E-02  0.460230703099408E-02  0.118916434191745E+00
  0.224854373150000E-01  0.000000000000000E+00  0.910396092780002E-02  0.458068085840624E-02  0.118636651462342E+00
  0.235334165652000E-01  0.000000000000000E+00  0.906352419535342E-02  0.455975318361902E-02  0.118365272012211E+00
  0.245838219052000E-01  0.000000000000000E+00  0.902235315676712E-02  0.453946550728907E-02  0.118101593428134E+00
  0.256366759281000E-01  0.000000000000000E+00  0.898071312076849E-02  0.451976829892991E-02  0.117845022196017E+00
  0.266920013986000E-01  0.000000000000000E+00  0.893880996439516E-02  0.450061918314786E-02  0.117595051628374E+00
  0.277498212550000E-01  0.000000000000000E+00  0.889681522550249E-02  0.448198157929520E-02  0.117351245324299E+00
  0.288101586112000E-01  0.000000000000000E+00  0.885486115273900E-02  0.446382353130975E-02  0.117113222821561E+00
  0.298730367591000E-01  0.000000000000000E+00  0.881305365023939E-02  0.444611670958467E-02  0.116880647273098E+00
  0.309384791708000E-01  0.000000000000000E+00  0.877147937841264E-02  0.442883590905876E-02  0.116653219461421E+00
  0.320065095008000E-01  0.000000000000000E+00  0.873020838462349E-02  0.441195855434551E-02  0.116430671784910E+00
  0.330771515884000E-01  0.000000000000000E+00  0.868929521993403E-02  0.439546418012370E-02  0.116212761820821E+00
  0.341504294599000E-01  0.000000000000000E+00  0.864878247770167E-02  0.437933414421831E-02  0.115999268872288E+00
  0.352263673311000E-01  0.000000000000000E+00  0.860870403025198E-02  0.436355138569157E-02  0.115789991054889E+00
  0.363049896097000E-01  0.000000000000000E+00  0.856908641850523E-02  0.434810028426607E-02  0.115584743682761E+00
  0.373863208975000E-01  0.000000000000000E+00  0.852995243645032E-02  0.433296654094805E-02  0.115383357900698E+00
  0.384703859929000E-01  0.000000000000000E+00  0.849131271556709E-02  0.431813696638085E-02  0.115185678060682E+00
  0.395572098938000E-01  0.000000000000000E+00  0.845317992268343E-02  0.430359931852623E-02  0.114991559725251E+00
  0.406468177996000E-01  0.000000000000000E+00  0.841555853974591E-02  0.428934217733206E-02  0.114800868134050E+00
  0.417392351139000E-01  0.000000000000000E+00  0.837845545295249E-02  0.427535485549932E-02  0.114613477132078E+00
  0.428344874472000E-01  0.000000000000000E+00  0.834186988417164E-02  0.426162737371261E-02  0.114429268945452E+00
  0.439326006196000E-01  0.000000000000000E+00  0.830580174273779E-02  0.424815036600542E-02  0.114248133010893E+00
  0.450336006631000E-01  0.000000000000000E+00  0.827024608976038E-02  0.423491498019862E-02  0.114069964726420E+00
  0.461375138246000E-01  0.000000000000000E+00  0.823520168285225E-02  0.422191285278606E-02  0.113894665187904E+00
  0.472443665687000E-01  0.000000000000000E+00  0.820065930289588E-02  0.420913607511291E-02  0.113722140801482E+00
  0.483541855800000E-01  0.000000000000000E+00  0.816661541557557E-02  0.419657715720149E-02  0.113552302860418E+00
  0.494669977666000E-01  0.000000000000000E+00  0.813306089744329E-02  0.418422900178803E-02  0.113385067251634E+00
  0.505828302621000E-01  0.000000000000000E+00  0.809998967316039E-02  0.417208487019878E-02  0.113220354046376E+00
  0.517017104295000E-01  0.000000000000000E+00  0.806739152436104E-02  0.416013835365843E-02  0.113058087160533E+00
  0.528236658631000E-01  0.000000000000000E+00  0.803526064154950E-02  0.414838335283531E-02  0.112898194120979E+00
  0.539487243923000E-01  0.000000000000000E+00  0.800358528280087E-02  0.413681405301999E-02  0.112740605768466E+00
  0.550769140839000E-01  0.000000000000000E+00  0.797235929556844E-02  0.412542490310313E-02  0.112585256009490E+00
  0.562082632459000E-01  0.000000000000000E+00  0.794157112380242E-02  0.411421060012067E-02  0.112432081639750E+00
  0.573428004298000E-01  0.000000000000000E+00  0.791121402377819E-02  0.410316607295271E-02  0.112281022153656E+00
  0.584805544345000E-01  0.000000000000000E+00  0.788127676675560E-02  0.409228646817229E-02  0.112132019580469E+00
  0.596215543087000E-01  0.000000000000000E+00  0.785175225480923E-02  0.408156713636506E-02  0.111985018324541E+00
  0.607658293550000E-01  0.000000000000000E+00  0.782262948118007E-02  0.407100361943014E-02  0.111839965016817E+00
  0.619134091323000E-01  0.000000000000000E+00  0.779390126529452E-02  0.406059163906939E-02  0.111696808380712E+00
  0.630643234596000E-01  0.000000000000000E+00  0.776555693905128E-02  0.405032708657318E-02  0.111555499113882E+00
  0.642186024196000E-01  0.000000000000000E+00  0.773758942321631E-02  0.404020601291170E-02  0.111415989772592E+00
  0.653762763615000E-01  0.000000000000000E+00  0.770998832397682E-02  0.403022461969603E-02  0.111278234666518E+00
  0.665373759048000E-01  0.000000000000000E+00  0.768274686840138E-02  0.402037925102607E-02  0.111142189764429E+00
  0.677019319429000E-01  0.000000000000000E+00  0.765585495865473E-02  0.401066638587434E-02  0.111007812605874E+00
  0.688699756464000E-01  0.000000000000000E+00  0.762930610487267E-02  0.400108263084466E-02  0.110875062217018E+00
  0.700415384670000E-01  0.000000000000000E+00  0.760309055881330E-02  0.399162471367608E-02  0.110743899035573E+00
  0.712166521409000E-01  0.000000000000000E+00  0.757720209366391E-02  0.398228947694629E-02  0.110614284837611E+00
  0.723953486927000E-01  0.000000000000000E+00  0.755163133181469E-02  0.397307387258075E-02  0.110486182674552E+00
  0.735776604393000E-01  0.000000000000000E+00  0.752637236867931E-02  0.396397495667456E-02  0.110359556813730E+00
  0.747636199934000E-01  0.000000000000000E+00  0.750141618475832E-02  0.395498988479941E-02  0.110234372684847E+00
  0.759532602674000E-01  0.000000000000000E+00  0.747675721726341E-02  0.394611590752280E-02  0.110110596828758E+00
  0.771466144779000E-01  0.000000000000000E+00  0.745238680362391E-02  0.393735036634142E-02  0.109988196851274E+00
  0.783437161489000E-01  0.000000000000000E+00  0.742829971833725E-02  0.392869068971812E-02  0.109867141377883E+00
  0.795445991166000E-01  0.000000000000000E+00  0.740448765085278E-02  0.392013438965532E-02  0.109747400015317E+00
  0.807492975331000E-01  0.000000000000000E+00  0.738094573338177E-02  0.391167905811377E-02  0.109628943310459E+00
  0.819578458705000E-01  0.000000000000000E+00  0.735766590296917E-02  0.390332236363577E-02  0.109511742711585E+00
  0.831702789256000E-01  0.000000000000000E+00  0.733464370586015E-02  0.389506204815141E-02  0.109395770531726E+00
  0.843866318239000E-01  0.000000000000000E+00  0.731187129612446E-02  0.388689592364973E-02  0.109280999909588E+00
  0.856069400241000E-01  0.000000000000000E+00  0.728934456988612E-02  0.387882186927951E-02  0.109167404776222E+00
  0.868312393222000E-01  0.000000000000000E+00  0.726705607128381E-02  0.387083782895039E-02  0.109054959828159E+00
  0.880595658565000E-01  0.000000000000000E+00  0.724500192272088E-02  0.386294180893194E-02  0.108943640500285E+00
  0.892919561122000E-01  0.000000000000000E+00  0.722317511557348E-02  0.385513187542601E-02  0.108833422937849E+00
  0.905284469256000E-01  0.000000000000000E+00  0.720157180728836E-02  0.384740615137026E-02  0.108724283957386E+00
  0.917690754890000E-01  0.000000000000000E+00  0.718018540244289E-02  0.383976281427259E-02  0.108616201021885E+00
  0.930138793557000E-01  0.000000000000000E+00  0.715901234385078E-02  0.383220009439029E-02  0.108509152220431E+00
  0.942628964449000E-01  0.000000000000000E+00  0.713804627917274E-02  0.382471627282646E-02  0.108403116246456E+00
  0.955161650461000E-01  0.000000000000000E+00  0.711728398421802E-02  0.381730967961465E-02  0.108298072375529E+00
  0.967737238250000E-01  0.000000000000000E+00  0.709671922434683E-02  0.380997869141036E-02  0.108194000437309E+00
  0.980356118277000E-01  0.000000000000000E+00  0.707634904887186E-02  0.380272172987039E-02  0.108090880797135E+00
  0.993018684865000E-01  0.000000000000000E+00  0.705616756183477E-02  0.379553726033668E-02  0.107988694341527E+00
  0.100572533625000E+00  0.000000000000000E+00  0.703617187944713E-02  0.378842378979463E-02  0.107887422453290E+00
  0.101847647464000E+00  0.000000000000000E+00  0.701635644020529E-02  0.378137986553220E-02  0.107787046996379E+00
  0.103127250624000E+00  0.000000000000000E+00  0.699671854972487E-02  0.377440407378779E-02  0.107687550300349E+00
  0.104411384137000E+00  0.000000000000000E+00  0.697725284396330E-02  0.376749503842298E-02  0.107588915145048E+00
  0.105700089445000E+00  0.000000000000000E+00  0.695795688560041E-02  0.376065141972436E-02  0.107491124746956E+00
  0.106993408409000E+00  0.000000000000000E+00  0.693882544936361E-02  0.375387191294916E-02  0.107394162741670E+00
  0.108291383317000E+00  0.000000000000000E+00  0.691985627892284E-02  0.374715524717357E-02  0.107298013170670E+00
  0.109594056886000E+00  0.000000000000000E+00  0.690104443068496E-02  0.374050018442168E-02  0.107202660471829E+00
  0.110901472269000E+00  0.000000000000000E+00  0.688238771211809E-02  0.373390551822381E-02  0.107108089461673E+00
  0.112213673062000E+00  0.000000000000000E+00  0.686388140517088E-02  0.372737007268315E-02  0.107014285324831E+00
  0.113530703311000E+00  0.000000000000000E+00  0.684552353264716E-02  0.372089270170866E-02  0.106921233605675E+00
  0.114852607515000E+00  0.000000000000000E+00  0.682730947379076E-02  0.371447228773185E-02  0.106828920192438E+00
  0.116179430637000E+00  0.000000000000000E+00  0.680923741716181E-02  0.370810774086275E-02  0.106737331307618E+00
  0.117511218104000E+00  0.000000000000000E+00  0.679130298300182E-02  0.370179799823579E-02  0.106646453500885E+00
  0.118848015822000E+00  0.000000000000000E+00  0.677350440645271E-02  0.369554202286839E-02  0.106556273634929E+00
  0.120189870174000E+00  0.000000000000000E+00  0.675583750152959E-02  0.368933880290934E-02  0.106466778876858E+00
  0.121536828034000E+00  0.000000000000000E+00  0.673830068434070E-02  0.368318735102090E-02  0.106377956691356E+00
  0.122888936770000E+00  0.000000000000000E+00  0.672088982878976E-02  0.367708670333850E-02  0.106289794827688E+00
  0.124246244251000E+00  0.000000000000000E+00  0.670360353459211E-02  0.367103591891632E-02  0.106202281313694E+00
  0.125608798856000E+00  0.000000000000000E+00  0.668643785060676E-02  0.366503407915001E-02  0.106115404449247E+00
  0.126976649479000E+00  0.000000000000000E+00  0.666939138700100E-02  0.365908028675114E-02  0.106029152793248E+00
  0.128349845539000E+00  0.000000000000000E+00  0.665246040876255E-02  0.365317366524521E-02  0.105943515158114E+00
  0.129728436987000E+00  0.000000000000000E+00  0.663564362156961E-02  0.364731335849944E-02  0.105858480604585E+00
  0.131112474309000E+00  0.000000000000000E+00  0.661893741330363E-02  0.364149852995464E-02  0.105774038432179E+00
  0.132502008543000E+00  0.000000000000000E+00  0.660234056131565E-02  0.363572836198167E-02  0.105690178171427E+00
  0.133897091277000E+00  0.000000000000000E+00  0.658584961180494E-02  0.363000205547501E-02  0.105606889579466E+00
  0.135297774663000E+00  0.000000000000000E+00  0.656946343427104E-02  0.362431882932590E-02  0.105524162633800E+00
  0.136704111424000E+00  0.000000000000000E+00  0.655317864915541E-02  0.361867791966186E-02  0.105441987522623E+00
  0.138116154862000E+00  0.000000000000000E+00  0.653699422314968E-02  0.361307857941433E-02  0.105360354639899E+00
  0.139533958866000E+00  0.000000000000000E+00  0.652090693274511E-02  0.360752007800602E-02  0.105279254582067E+00
  0.140957577921000E+00  0.000000000000000E+00  0.650491577301539E-02  0.360200170071337E-02  0.105198678139989E+00
  0.142387067116000E+00  0.000000000000000E+00  0.648901764154537E-02  0.359652274820657E-02  0.105118616293455E+00
  0.143822482155000E+00  0.000000000000000E+00  0.647321162447875E-02  0.359108253624593E-02  0.105039060207907E+00
  0.145263879365000E+00  0.000000000000000E+00  0.645749471070830E-02  0.358568039519876E-02  0.104960001228485E+00
  0.146711315702000E+00  0.000000000000000E+00  0.644186603240441E-02  0.358031566951471E-02  0.104881430873446E+00
  0.148164848767000E+00  0.000000000000000E+00  0.642632269767399E-02  0.357498771746979E-02  0.104803340831472E+00
  0.149624536808000E+00  0.000000000000000E+00  0.641086390584800E-02  0.356969591078607E-02  0.104725722957094E+00
  0.151090438737000E+00  0.000000000000000E+00  0.639548683200359E-02  0.356443963415412E-02  0.104648569264663E+00
  0.152562614133000E+00  0.000000000000000E+00  0.638019073401219E-02  0.355921828485403E-02  0.104571871923759E+00
  0.154041123258000E+00  0.000000000000000E+00  0.636497290262828E-02  0.355403127256433E-02  0.104495623257280E+00
  0.155526027063000E+00  0.000000000000000E+00  0.634983262952955E-02  0.354887801893992E-02  0.104419815736121E+00
  0.157017387201000E+00  0.000000000000000E+00  0.633476728070396E-02  0.354375795722485E-02  0.104344441974333E+00
  0.158515266035000E+00  0.000000000000000E+00  0.631977620762265E-02  0.353867053200232E-02  0.104269494726289E+00
  0.160019726651000E+00  0.000000000000000E+00  0.630485686722463E-02  0.353361519894807E-02  0.104194966883826E+00
  0.161530832868000E+00  0.000000000000000E+00  0.629000863470016E-02  0.352859142442209E-02  0.104120851471010E+00
  0.163048649252000E+00  0.000000000000000E+00  0.627522904423599E-02  0.352359868519296E-02  0.104047141640822E+00
  0.164573241120000E+00  0.000000000000000E+00  0.626051752743757E-02  0.351863646824817E-02  0.103973830673087E+00
  0.166104674559000E+00  0.000000000000000E+00  0.624587169200425E-02  0.351370427052893E-02  0.103900911971244E+00
  0.167643016437000E+00  0.000000000000000E+00  0.623129098136539E-02  0.350880159854291E-02  0.103828379057305E+00
  0.169188334409000E+00  0.000000000000000E+00  0.621677308652670E-02  0.350392796814841E-02  0.103756225569336E+00
  0.170740696935000E+00  0.000000000000000E+00  0.620231749711867E-02  0.349908290441074E-02  0.103684445259956E+00
  0.172300173293000E+00  0.000000000000000E+00  0.618792196543134E-02  0.349426594132186E-02  0.103613031992794E+00
  0.173866833586000E+00  0.000000000000000E+00  0.617358599555188E-02  0.348947662148469E-02  0.103541979738422E+00
  0.175440748759000E+00  0.000000000000000E+00  0.615930742114174E-02  0.348471449596823E-02  0.103471282572782E+00
  0.177021990614000E+00  0.000000000000000E+00  0.614508577861939E-02  0.347997912428763E-02  0.103400934677454E+00
  0.178610631817000E+00  0.000000000000000E+00  0.613091895254206E-02  0.347527007439544E-02  0.103330930340075E+00
  0.180206745919000E+00  0.000000000000000E+00  0.611680649732176E-02  0.347058691944177E-02  0.103261263906688E+00
  0.181810407363000E+00  0.000000000000000E+00  0.610274637287610E-02  0.346592923902965E-02  0.103191929800857E+00
  0.183421691503000E+00  0.000000000000000E+00  0.608873816755023E-02  0.346129662913609E-02  0.103122922671884E+00
  0.185040674618000E+00  0.000000000000000E+00  0.607477985990558E-02  0.345668869347471E-02  0.103054237266891E+00
  0.186667433923000E+00  0.000000000000000E+00  0.606087106923876E-02  0.345210503182054E-02  0.102985868257260E+00
  0.188302047589000E+00  0.000000000000000E+00  0.604700985974110E-02  0.344754524899937E-02  0.102917810372734E+00
  0.189944594753000E+00  0.000000000000000E+00  0.603319583692657E-02  0.344300896389720E-02  0.102850058536305E+00
  0.191595155540000E+00  0.000000000000000E+00  0.601942712823751E-02  0.343849580421554E-02  0.102782607786575E+00
  0.193253811070000E+00  0.000000000000000E+00  0.600570334929884E-02  0.343400540081436E-02  0.102715453193736E+00
  0.194920643485000E+00  0.000000000000000E+00  0.599202269483242E-02  0.342953739169779E-02  0.102648589919451E+00
  0.196595735954000E+00  0.000000000000000E+00  0.597838478243779E-02  0.342509142110144E-02  0.102582013203600E+00
  0.198279172699000E+00  0.000000000000000E+00  0.596478785149156E-02  0.342066713796578E-02  0.102515718341811E+00
  0.199971039007000E+00  0.000000000000000E+00  0.595123152932356E-02  0.341626419699953E-02  0.102449700701719E+00
  0.201671421251000E+00  0.000000000000000E+00  0.593771411344646E-02  0.341188225796982E-02  0.102383955712676E+00
  0.203380406902000E+00  0.000000000000000E+00  0.592423526748645E-02  0.340752098691405E-02  0.102318478884230E+00
  0.205098084553000E+00  0.000000000000000E+00  0.591079320228743E-02  0.340318005764772E-02  0.102253265829183E+00
  0.206824543936000E+00  0.000000000000000E+00  0.589738772514638E-02  0.339885914727482E-02  0.102188312196584E+00
  0.208559875938000E+00  0.000000000000000E+00  0.588401712781866E-02  0.339455793656824E-02  0.102123613677648E+00
  0.210304172623000E+00  0.000000000000000E+00  0.587068116384267E-02  0.339027611431272E-02  0.102059166071312E+00
  0.212057527251000E+00  0.000000000000000E+00  0.585737810509286E-02  0.338601337182221E-02  0.101994965202091E+00
  0.213820034298000E+00  0.000000000000000E+00  0.584410768683652E-02  0.338176940353531E-02  0.101931006929362E+00
  0.215591789475000E+00  0.000000000000000E+00  0.583086836894057E-02  0.337754391253279E-02  0.101867287230759E+00
  0.217372889750000E+00  0.000000000000000E+00  0.581765989330193E-02  0.337333660503122E-02  0.101803802119290E+00
  0.219163433371000E+00  0.000000000000000E+00  0.580448024608707E-02  0.336914719109200E-02  0.101740547654759E+00
  0.220963519883000E+00  0.000000000000000E+00  0.579133047201586E-02  0.336497538699808E-02  0.101677519979452E+00
  0.222773250154000E+00  0.000000000000000E+00  0.577820691401363E-02  0.336082090970667E-02  0.101614715234412E+00
  0.224592726396000E+00  0.000000000000000E+00  0.576511132469434E-02  0.335668348059768E-02  0.101552129617232E+00
  0.226422052188000E+00  0.000000000000000E+00  0.575204113458159E-02  0.335256282877506E-02  0.101489759431347E+00
  0.228261332499000E+00  0.000000000000000E+00  0.573899628922689E-02  0.334845868668220E-02  0.101427601020155E+00
  0.230110673713000E+00  0.000000000000000E+00  0.572597563824091E-02  0.334437078905772E-02  0.101365650751749E+00
  0.231970183654000E+00  0.000000000000000E+00  0.571297829026524E-02  0.334029887379323E-02  0.101303905031712E+00
  0.233839971608000E+00  0.000000000000000E+00  0.570000349955516E-02  0.333624268274613E-02  0.101242360315930E+00
  0.235720148350000E+00  0.000000000000000E+00  0.568705036047001E-02  0.333220196180485E-02  0.101181013111629E+00
  0.237610826171000E+00  0.000000000000000E+00  0.567411803678189E-02  0.332817646050887E-02  0.101119859971900E+00
  0.239512118903000E+00  0.000000000000000E+00  0.566120581801943E-02  0.332416593212655E-02  0.101058897497054E+00
  0.241424141947000E+00  0.000000000000000E+00  0.564831267334056E-02  0.332017013291165E-02  0.100998122323461E+00
  0.243347012301000E+00  0.000000000000000E+00  0.563543792761071E-02  0.331618882205225E-02  0.100937531123088E+00
  0.245280848585000E+00  0.000000000000000E+00  0.562258074538707E-02  0.331222176206909E-02  0.100877120609643E+00
  0.247225771073000E+00  0.000000000000000E+00  0.560974024830875E-02  0.330826871858874E-02  0.100816887535317E+00
  0.249181901724000E+00  0.000000000000000E+00  0.559691582597515E-02  0.330432946057253E-02  0.100756828694477E+00
  0.251149364206000E+00  0.000000000000000E+00  0.558410647108884E-02  0.330040375992974E-02  0.100696940917834E+00
  0.253128283932000E+00  0.000000000000000E+00  0.557131150713541E-02  0.329649139106499E-02  0.100637221065809E+00
  0.255118788089000E+00  0.000000000000000E+00  0.555853009105910E-02  0.329259213132756E-02  0.100577666035549E+00
  0.257121005672000E+00  0.000000000000000E+00  0.554576151486273E-02  0.328870576111169E-02  0.100518272762555E+00
  0.259135067513000E+00  0.000000000000000E+00  0.553300493032007E-02  0.328483206351546E-02  0.100459038215637E+00
  0.261161106317000E+00  0.000000000000000E+00  0.552025960647613E-02  0.328097082412849E-02  0.100399959393824E+00
  0.263199256698000E+00  0.000000000000000E+00  0.550752473046526E-02  0.327712183111945E-02  0.100341033327861E+00
  0.265249655208000E+00  0.000000000000000E+00  0.549479960839808E-02  0.327328487523496E-02  0.100282257080296E+00
  0.267312440379000E+00  0.000000000000000E+00  0.548208335696529E-02  0.326945974949280E-02  0.100223627740911E+00
  0.269387752757000E+00  0.000000000000000E+00  0.546937530939865E-02  0.326564624912814E-02  0.100165142426058E+00
  0.271475734935000E+00  0.000000000000000E+00  0.545667462820936E-02  0.326184417192466E-02  0.100106798283879E+00
  0.273576531599000E+00  0.000000000000000E+00  0.544398070452732E-02  0.325805331835960E-02  0.100048592496614E+00
  0.275690289562000E+00  0.000000000000000E+00  0.543129262717664E-02  0.325427349106991E-02  0.999905222725000E-01
  0.277817157802000E+00  0.000000000000000E+00  0.541860971965085E-02  0.325050449447873E-02  0.999325848402063E-01
  0.279957287508000E+00  0.000000000000000E+00  0.540593118059096E-02  0.324674613506389E-02  0.998747774530766E-01
  0.282110832117000E+00  0.000000000000000E+00  0.539325630715443E-02  0.324299822147421E-02  0.998170973909896E-01
  0.284277947361000E+00  0.000000000000000E+00  0.538058430720507E-02  0.323926056438399E-02  0.997595419582278E-01
  0.286458791305000E+00  0.000000000000000E+00  0.536791444200840E-02  0.323553297649945E-02  0.997021084837081E-01
  0.288653524394000E+00  0.000000000000000E+00  0.535524600669175E-02  0.323181527267598E-02  0.996447943228858E-01
  0.290862309501000E+00  0.000000000000000E+00  0.534257820178352E-02  0.322810727000576E-02  0.995875968591694E-01
  0.293085311970000E+00  0.000000000000000E+00  0.532991028389424E-02  0.322440878676179E-02  0.995305134877843E-01
  0.295322699666000E+00  0.000000000000000E+00  0.531724154639868E-02  0.322071964226120E-02  0.994735416137230E-01
  0.297574643019000E+00  0.000000000000000E+00  0.530457117714489E-02  0.321703965840253E-02  0.994166786755206E-01
  0.299841315083000E+00  0.000000000000000E+00  0.529189846221983E-02  0.321336865905976E-02  0.993599221360459E-01
  0.302122891576000E+00  0.000000000000000E+00  0.527922264473687E-02  0.320970646943338E-02  0.993032694725667E-01
  0.304419550941000E+00  0.000000000000000E+00  0.526654300125884E-02  0.320605291649950E-02  0.992467181837321E-01
  0.306731474395000E+00  0.000000000000000E+00  0.525385873439183E-02  0.320240782871728E-02  0.991902657851265E-01
  0.309058845984000E+00  0.000000000000000E+00  0.524116910119047E-02  0.319877103588293E-02  0.991339098071064E-01
  0.311401852641000E+00  0.000000000000000E+00  0.522847334135022E-02  0.319514236929829E-02  0.990776477974973E-01
  0.313760684241000E+00  0.000000000000000E+00  0.521577073489147E-02  0.319152166191153E-02  0.990214773238225E-01
  0.316135533661000E+00  0.000000000000000E+00  0.520306048539571E-02  0.318790874812535E-02  0.989653959703814E-01
  0.318526596838000E+00  0.000000000000000E+00  0.519034182860922E-02  0.318430346354528E-02  0.989094013344315E-01
  0.320934072836000E+00  0.000000000000000E+00  0.517761399376759E-02  0.318070564497704E-02  0.988534910262259E-01
  0.323358163901000E+00  0.000000000000000E+00  0.516487622867886E-02  0.317711513028526E-02  0.987976626668849E-01
  0.325799075532000E+00  0.000000000000000E+00  0.515212782352987E-02  0.317353175920759E-02  0.987419139010584E-01
  0.328257016546000E+00  0.000000000000000E+00  0.513936786803290E-02  0.316995537351583E-02  0.986862423994839E-01
  0.330732199141000E+00  0.000000000000000E+00  0.512659563296174E-02  0.316638581470645E-02  0.986306458232212E-01
  0.333224838973000E+00  0.000000000000000E+00  0.511381037927266E-02  0.316282292468529E-02  0.985751218343057E-01
  0.335735155220000E+00  0.000000000000000E+00  0.510101129400483E-02  0.315926654790868E-02  0.985196681290698E-01
  0.338263370659000E+00  0.000000000000000E+00  0.508819759249229E-02  0.315571652979382E-02  0.984642824134785E-01
  0.340809711741000E+00  0.000000000000000E+00  0.507536846422463E-02  0.315217271656186E-02  0.984089624007398E-01
  0.343374408663000E+00  0.000000000000000E+00  0.506252308425857E-02  0.314863495598683E-02  0.983537058230401E-01
  0.345957695453000E+00  0.000000000000000E+00  0.504966068258307E-02  0.314510309619362E-02  0.982985104128478E-01
  0.348559810045000E+00  0.000000000000000E+00  0.503678044359658E-02  0.314157698650326E-02  0.982433739161174E-01
  0.351180994364000E+00  0.000000000000000E+00  0.502388154019088E-02  0.313805647710023E-02  0.981882940871010E-01
  0.353821494410000E+00  0.000000000000000E+00  0.501096309444124E-02  0.313454141810574E-02  0.981332686739353E-01
  0.356481560345000E+00  0.000000000000000E+00  0.499802436210966E-02  0.313103166133879E-02  0.980782954462515E-01
  0.359161446581000E+00  0.000000000000000E+00  0.498506448851474E-02  0.312752706001540E-02  0.980233721904474E-01
  0.361861411874000E+00  0.000000000000000E+00  0.497208259280552E-02  0.312402746761915E-02  0.979684966920351E-01
  0.364581719413000E+00  0.000000000000000E+00  0.495907782016580E-02  0.312053273810721E-02  0.979136667389315E-01
  0.367322636920000E+00  0.000000000000000E+00  0.494604929622357E-02  0.311704272615080E-02  0.978588801252661E-01
  0.370084436746000E+00  0.000000000000000E+00  0.493299621333916E-02  0.311355728734935E-02  0.978041346547521E-01
  0.372867395974000E+00  0.000000000000000E+00  0.491991764746601E-02  0.311007627814064E-02  0.977494281392796E-01
  0.375671796523000E+00  0.000000000000000E+00  0.490681274744371E-02  0.310659955549321E-02  0.976947583941084E-01
  0.378497925251000E+00  0.000000000000000E+00  0.489368053649012E-02  0.310312697672165E-02  0.976401232350096E-01
  0.381346074068000E+00  0.000000000000000E+00  0.488052019772692E-02  0.309965839972335E-02  0.975855204820323E-01
  0.384216540046000E+00  0.000000000000000E+00  0.486733079352320E-02  0.309619368323655E-02  0.975309479635476E-01
  0.387109625537000E+00  0.000000000000000E+00  0.485411142433659E-02  0.309273268657303E-02  0.974764035120226E-01
  0.390025638288000E+00  0.000000000000000E+00  0.484086107072068E-02  0.308927526921636E-02  0.974218849577383E-01
  0.392964891565000E+00  0.000000000000000E+00  0.482757884413226E-02  0.308582129092328E-02  0.973673901304354E-01
  0.395927704274000E+00  0.000000000000000E+00  0.481426377898656E-02  0.308237061209695E-02  0.973129168651959E-01
  0.398914401097000E+00  0.000000000000000E+00  0.480091495534486E-02  0.307892309382989E-02  0.972584630030936E-01
  0.401925312614000E+00  0.000000000000000E+00  0.478753132501389E-02  0.307547859748839E-02  0.972040263846328E-01
  0.404960775445000E+00  0.000000000000000E+00  0.477411189474848E-02  0.307203698444097E-02  0.971496048455061E-01
  0.408021132388000E+00  0.000000000000000E+00  0.476065567181097E-02  0.306859811638196E-02  0.970951962217442E-01
  0.411106732560000E+00  0.000000000000000E+00  0.474716170473233E-02  0.306516185566094E-02  0.970407983548751E-01
  0.414217931545000E+00  0.000000000000000E+00  0.473362888625539E-02  0.306172806497137E-02  0.969864090869650E-01
  0.417355091545000E+00  0.000000000000000E+00  0.472005617342080E-02  0.305829660688753E-02  0.969320262533212E-01
  0.420518581537000E+00  0.000000000000000E+00  0.470644245456223E-02  0.305486734435218E-02  0.968776476903191E-01
  0.423708777428000E+00  0.000000000000000E+00  0.469278691196078E-02  0.305144014005054E-02  0.968232712252150E-01
  0.426926062226000E+00  0.000000000000000E+00  0.467908769427991E-02  0.304801485620727E-02  0.967688946732188E-01
  0.430170826202000E+00  0.000000000000000E+00  0.466534511150973E-02  0.304459135676307E-02  0.967145158720557E-01