# Planar shear case, SSG/LRR-RSM-w2012, y=0
VARIABLES = "X"
"Y"
"U Velocity"
ZONE T="CFL3D"
 0.000000000E+00 0.000000000E+00 5.023285747E-01
 7.821894437E-02 0.000000000E+00 5.022525191E-01
 1.568456888E-01 0.000000000E+00 5.020928979E-01
 2.358823568E-01 0.000000000E+00 5.019251108E-01
 3.153310716E-01 0.000000000E+00 5.017640591E-01
 3.951940238E-01 0.000000000E+00 5.016178489E-01
 4.754733145E-01 0.000000000E+00 5.014889836E-01
 5.561711788E-01 0.000000000E+00 5.013778210E-01
 6.372897029E-01 0.000000000E+00 5.012828708E-01
 7.188312411E-01 0.000000000E+00 5.012020469E-01
 8.007978201E-01 0.000000000E+00 5.011330247E-01
 8.831917644E-01 0.000000000E+00 5.010739565E-01
 9.660152793E-01 0.000000000E+00 5.010227561E-01
 1.049270511E+00 0.000000000E+00 5.009782910E-01
 1.132959962E+00 0.000000000E+00 5.009391308E-01
 1.217085600E+00 0.000000000E+00 5.009044409E-01
 1.301649928E+00 0.000000000E+00 5.008733273E-01
 1.386654973E+00 0.000000000E+00 5.008454323E-01
 1.472103357E+00 0.000000000E+00 5.008202791E-01
 1.557997227E+00 0.000000000E+00 5.007974505E-01
 1.644338846E+00 0.000000000E+00 5.007766485E-01
 1.731130600E+00 0.000000000E+00 5.007575154E-01
 1.818374872E+00 0.000000000E+00 5.007398725E-01
 1.906073928E+00 0.000000000E+00 5.007236004E-01
 1.994230270E+00 0.000000000E+00 5.007083416E-01
 2.082846165E+00 0.000000000E+00 5.006942153E-01
 2.171924114E+00 0.000000000E+00 5.006811619E-01
 2.261466503E+00 0.000000000E+00 5.006690025E-01
 2.351475716E+00 0.000000000E+00 5.006574988E-01
 2.441954136E+00 0.000000000E+00 5.006468296E-01
 2.532904387E+00 0.000000000E+00 5.006366372E-01
 2.624328852E+00 0.000000000E+00 5.006270409E-01
 2.716229677E+00 0.000000000E+00 5.006175637E-01
 2.808609962E+00 0.000000000E+00 5.006085634E-01
 2.901471615E+00 0.000000000E+00 5.006003976E-01
 2.994817495E+00 0.000000000E+00 5.005926490E-01
 3.088649988E+00 0.000000000E+00 5.005854368E-01
 3.182971954E+00 0.000000000E+00 5.005784035E-01
 3.277785301E+00 0.000000000E+00 5.005717874E-01
 3.373093128E+00 0.000000000E+00 5.005654097E-01
 3.468897820E+00 0.000000000E+00 5.005592108E-01
 3.565201998E+00 0.000000000E+00 5.005532503E-01
 3.662008286E+00 0.000000000E+00 5.005475879E-01
 3.759319305E+00 0.000000000E+00 5.005422831E-01
 3.857137680E+00 0.000000000E+00 5.005371571E-01
 3.955466032E+00 0.000000000E+00 5.005322695E-01
 4.054306984E+00 0.000000000E+00 5.005274415E-01
 4.153663158E+00 0.000000000E+00 5.005227923E-01
 4.253537178E+00 0.000000000E+00 5.005180240E-01
 4.353932381E+00 0.000000000E+00 5.005133748E-01
 4.454850674E+00 0.000000000E+00 5.005092025E-01
 4.556295395E+00 0.000000000E+00 5.005051494E-01
 4.658268452E+00 0.000000000E+00 5.005013347E-01
 4.760773659E+00 0.000000000E+00 5.004976988E-01
 4.863812923E+00 0.000000000E+00 5.004940629E-01
 4.967389584E+00 0.000000000E+00 5.004905462E-01
 5.071506500E+00 0.000000000E+00 5.004869699E-01
 5.176166058E+00 0.000000000E+00 5.004834533E-01
 5.281371117E+00 0.000000000E+00 5.004802942E-01
 5.387124538E+00 0.000000000E+00 5.004772544E-01
 5.493429661E+00 0.000000000E+00 5.004742742E-01
 5.600288868E+00 0.000000000E+00 5.004713535E-01
 5.707705021E+00 0.000000000E+00 5.004684329E-01
 5.815681458E+00 0.000000000E+00 5.004653931E-01
 5.924220562E+00 0.000000000E+00 5.004622936E-01
 6.033325672E+00 0.000000000E+00 5.004591942E-01
 6.142999649E+00 0.000000000E+00 5.004563332E-01
 6.253245354E+00 0.000000000E+00 5.004537106E-01
 6.364065647E+00 0.000000000E+00 5.004512072E-01
 6.475464344E+00 0.000000000E+00 5.004487634E-01
 6.587443352E+00 0.000000000E+00 5.004463792E-01
 6.700006008E+00 0.000000000E+00 5.004439354E-01
 6.813155651E+00 0.000000000E+00 5.004413128E-01
 6.926895618E+00 0.000000000E+00 5.004388690E-01
 7.041227818E+00 0.000000000E+00 5.004365444E-01
 7.156156540E+00 0.000000000E+00 5.004342198E-01
 7.271684647E+00 0.000000000E+00 5.004320145E-01
 7.387814999E+00 0.000000000E+00 5.004298091E-01
 7.504550457E+00 0.000000000E+00 5.004276037E-01
 7.621894836E+00 0.000000000E+00 5.004253387E-01
 7.739850521E+00 0.000000000E+00 5.004227757E-01
 7.858421803E+00 0.000000000E+00 5.004202724E-01
 7.977611065E+00 0.000000000E+00 5.004180670E-01
 8.097421646E+00 0.000000000E+00 5.004159808E-01
 8.217856407E+00 0.000000000E+00 5.004139543E-01
 8.338919640E+00 0.000000000E+00 5.004118681E-01
 8.460614204E+00 0.000000000E+00 5.004097819E-01
 8.582942963E+00 0.000000000E+00 5.004077554E-01
 8.705908775E+00 0.000000000E+00 5.004054904E-01
 8.829516411E+00 0.000000000E+00 5.004032850E-01
 8.953768730E+00 0.000000000E+00 5.004012585E-01
 9.078668594E+00 0.000000000E+00 5.003992915E-01
 9.204219818E+00 0.000000000E+00 5.003972650E-01
 9.330425262E+00 0.000000000E+00 5.003952980E-01
 9.457288742E+00 0.000000000E+00 5.003933311E-01
 9.584813118E+00 0.000000000E+00 5.003911853E-01
 9.713003159E+00 0.000000000E+00 5.003887415E-01
 9.841861725E+00 0.000000000E+00 5.003862977E-01
 9.971391678E+00 0.000000000E+00 5.003841519E-01
 1.010159683E+01 0.000000000E+00 5.003821850E-01
 1.023248100E+01 0.000000000E+00 5.003802180E-01
 1.036404705E+01 0.000000000E+00 5.003782511E-01
 1.049629974E+01 0.000000000E+00 5.003762841E-01
 1.062924099E+01 0.000000000E+00 5.003741980E-01
 1.076287651E+01 0.000000000E+00 5.003719926E-01
 1.089720821E+01 0.000000000E+00 5.003697276E-01
 1.103223991E+01 0.000000000E+00 5.003676414E-01
 1.116797638E+01 0.000000000E+00 5.003655553E-01
 1.130441952E+01 0.000000000E+00 5.003634691E-01
 1.144157505E+01 0.000000000E+00 5.003614426E-01
 1.157944489E+01 0.000000000E+00 5.003593564E-01
 1.171803379E+01 0.000000000E+00 5.003571510E-01
 1.185734463E+01 0.000000000E+00 5.003545880E-01
 1.199738312E+01 0.000000000E+00 5.003520846E-01
 1.213815022E+01 0.000000000E+00 5.003499389E-01
 1.227965260E+01 0.000000000E+00 5.003477931E-01
 1.242189217E+01 0.000000000E+00 5.003456473E-01
 1.256487274E+01 0.000000000E+00 5.003435016E-01
 1.270859909E+01 0.000000000E+00 5.003412962E-01
 1.285307503E+01 0.000000000E+00 5.003390908E-01
 1.299830437E+01 0.000000000E+00 5.003367066E-01
 1.314428997E+01 0.000000000E+00 5.003342032E-01
 1.329103756E+01 0.000000000E+00 5.003319979E-01
 1.343855000E+01 0.000000000E+00 5.003297329E-01
 1.358683109E+01 0.000000000E+00 5.003275275E-01
 1.373588562E+01 0.000000000E+00 5.003252029E-01
 1.388571739E+01 0.000000000E+00 5.003227592E-01
 1.403633022E+01 0.000000000E+00 5.003200769E-01
 1.418772793E+01 0.000000000E+00 5.003176332E-01
 1.433991528E+01 0.000000000E+00 5.003150105E-01
 1.449289608E+01 0.000000000E+00 5.003119111E-01
 1.464667416E+01 0.000000000E+00 5.003079772E-01
 1.480125427E+01 0.000000000E+00 5.002988577E-01
 1.495664024E+01 0.000000000E+00 5.002716780E-01
 1.511283588E+01 0.000000000E+00 5.001981258E-01
 1.526984692E+01 0.000000000E+00 5.000345111E-01
 1.542767525E+01 0.000000000E+00 4.997329414E-01
 1.558632755E+01 0.000000000E+00 4.992606640E-01
 1.574580669E+01 0.000000000E+00 4.986100793E-01
 1.590611649E+01 0.000000000E+00 4.977958500E-01
 1.606726265E+01 0.000000000E+00 4.968444705E-01
 1.622924995E+01 0.000000000E+00 4.957846701E-01
 1.639208031E+01 0.000000000E+00 4.946419001E-01
 1.655575943E+01 0.000000000E+00 4.934367239E-01
 1.672029305E+01 0.000000000E+00 4.921846986E-01
 1.688568306E+01 0.000000000E+00 4.908984303E-01
 1.705193710E+01 0.000000000E+00 4.895873368E-01
 1.721905708E+01 0.000000000E+00 4.882581830E-01
 1.738704872E+01 0.000000000E+00 4.869163632E-01
 1.755591583E+01 0.000000000E+00 4.855660796E-01
 1.772566223E+01 0.000000000E+00 4.842106998E-01
 1.789629555E+01 0.000000000E+00 4.828528762E-01
 1.806781769E+01 0.000000000E+00 4.814944863E-01
 1.824023438E+01 0.000000000E+00 4.801375866E-01
 1.841354942E+01 0.000000000E+00 4.787837565E-01
 1.858776665E+01 0.000000000E+00 4.774339497E-01
 1.876289368E+01 0.000000000E+00 4.760891199E-01
 1.893893433E+01 0.000000000E+00 4.747500122E-01
 1.911589241E+01 0.000000000E+00 4.734172821E-01
 1.929377365E+01 0.000000000E+00 4.720914662E-01
 1.947258186E+01 0.000000000E+00 4.707729816E-01
 1.965232086E+01 0.000000000E+00 4.694622755E-01
 1.983299828E+01 0.000000000E+00 4.681598544E-01
 2.001461792E+01 0.000000000E+00 4.668659866E-01
 2.019718361E+01 0.000000000E+00 4.655807316E-01
 2.038070107E+01 0.000000000E+00 4.643042088E-01
 2.056517601E+01 0.000000000E+00 4.630365968E-01
 2.075061226E+01 0.000000000E+00 4.617779553E-01
 2.093701553E+01 0.000000000E+00 4.605281651E-01
 2.112438965E+01 0.000000000E+00 4.592876136E-01
 2.131274223E+01 0.000000000E+00 4.580564797E-01
 2.150207520E+01 0.000000000E+00 4.568345547E-01
 2.169239616E+01 0.000000000E+00 4.556218982E-01
 2.188371086E+01 0.000000000E+00 4.544185400E-01
 2.207602119E+01 0.000000000E+00 4.532244205E-01
 2.226933479E+01 0.000000000E+00 4.520395696E-01
 2.246365547E+01 0.000000000E+00 4.508636892E-01
 2.265898895E+01 0.000000000E+00 4.496971071E-01
 2.285534286E+01 0.000000000E+00 4.485399425E-01
 2.305271912E+01 0.000000000E+00 4.473919868E-01
 2.325112343E+01 0.000000000E+00 4.462531209E-01
 2.345056343E+01 0.000000000E+00 4.451233149E-01
 2.365104294E+01 0.000000000E+00 4.440024793E-01
 2.385256767E+01 0.000000000E+00 4.428905547E-01
 2.405514336E+01 0.000000000E+00 4.417873323E-01
 2.425877380E+01 0.000000000E+00 4.406930208E-01
 2.446346664E+01 0.000000000E+00 4.396075606E-01
 2.466922760E+01 0.000000000E+00 4.385308623E-01
 2.487606049E+01 0.000000000E+00 4.374627769E-01
 2.508397102E+01 0.000000000E+00 4.364032149E-01
 2.529296684E+01 0.000000000E+00 4.353520870E-01
 2.550305176E+01 0.000000000E+00 4.343091846E-01
 2.571423149E+01 0.000000000E+00 4.332751930E-01
 2.592651367E+01 0.000000000E+00 4.322492480E-01
 2.613990211E+01 0.000000000E+00 4.312312007E-01
 2.635440254E+01 0.000000000E+00 4.302215874E-01
 2.657002068E+01 0.000000000E+00 4.292200506E-01
 2.678676414E+01 0.000000000E+00 4.282265902E-01
 2.700463676E+01 0.000000000E+00 4.272409678E-01
 2.722364616E+01 0.000000000E+00 4.262632430E-01
 2.744379616E+01 0.000000000E+00 4.252930582E-01
 2.766509438E+01 0.000000000E+00 4.243306220E-01
 2.788754654E+01 0.000000000E+00 4.233759344E-01
 2.811115837E+01 0.000000000E+00 4.224288166E-01
 2.833593559E+01 0.000000000E+00 4.214891493E-01
 2.856188583E+01 0.000000000E+00 4.205569625E-01
 2.878901291E+01 0.000000000E+00 4.196320772E-01
 2.901732445E+01 0.000000000E+00 4.187144339E-01
 2.924682617E+01 0.000000000E+00 4.178038239E-01
 2.947752571E+01 0.000000000E+00 4.169003665E-01
 2.970942688E+01 0.000000000E+00 4.160042107E-01
 2.994253731E+01 0.000000000E+00 4.151150584E-01
 3.017686272E+01 0.000000000E+00 4.142329097E-01
 3.041241074E+01 0.000000000E+00 4.133575857E-01
 3.064918518E+01 0.000000000E+00 4.124890566E-01
 3.088719559E+01 0.000000000E+00 4.116273224E-01
 3.112644577E+01 0.000000000E+00 4.107720554E-01
 3.136694336E+01 0.000000000E+00 4.099234045E-01
 3.160869598E+01 0.000000000E+00 4.090814888E-01
 3.185170746E+01 0.000000000E+00 4.082460701E-01
 3.209598541E+01 0.000000000E+00 4.074170887E-01
 3.234154129E+01 0.000000000E+00 4.065944254E-01
 3.258837128E+01 0.000000000E+00 4.057780802E-01
 3.283649445E+01 0.000000000E+00 4.049678743E-01
 3.308590698E+01 0.000000000E+00 4.041640460E-01
 3.333662033E+01 0.000000000E+00 4.033662677E-01
 3.358864212E+01 0.000000000E+00 4.025744498E-01
 3.384197617E+01 0.000000000E+00 4.017888606E-01
 3.409663010E+01 0.000000000E+00 4.010092020E-01
 3.435261536E+01 0.000000000E+00 4.002354145E-01
 3.460993195E+01 0.000000000E+00 3.994675279E-01
 3.486859131E+01 0.000000000E+00 3.987054229E-01
 3.512860107E+01 0.000000000E+00 3.979488611E-01
 3.538996124E+01 0.000000000E+00 3.971980214E-01
 3.565268707E+01 0.000000000E+00 3.964528739E-01
 3.591678619E+01 0.000000000E+00 3.957133293E-01
 3.618225861E+01 0.000000000E+00 3.949792683E-01
 3.644911575E+01 0.000000000E+00 3.942506909E-01
 3.671736145E+01 0.000000000E+00 3.935275078E-01
 3.698700714E+01 0.000000000E+00 3.928096890E-01
 3.725806046E+01 0.000000000E+00 3.920970857E-01
 3.753052521E+01 0.000000000E+00 3.913897574E-01
 3.780441284E+01 0.000000000E+00 3.906877339E-01
 3.807972717E+01 0.000000000E+00 3.899909556E-01
 3.835647583E+01 0.000000000E+00 3.892992437E-01
 3.863466644E+01 0.000000000E+00 3.886126578E-01
 3.891431046E+01 0.000000000E+00 3.879310787E-01
 3.919541168E+01 0.000000000E+00 3.872544467E-01
 3.947797775E+01 0.000000000E+00 3.865827322E-01
 3.976201630E+01 0.000000000E+00 3.859158754E-01
 4.004753494E+01 0.000000000E+00 3.852539062E-01
 4.033454514E+01 0.000000000E+00 3.845968246E-01
 4.062304688E+01 0.000000000E+00 3.839443922E-01
 4.091305923E+01 0.000000000E+00 3.832966685E-01
 4.120457840E+01 0.000000000E+00 3.826536238E-01
 4.149761963E+01 0.000000000E+00 3.820150793E-01
 4.179218674E+01 0.000000000E+00 3.813816309E-01
 4.208829117E+01 0.000000000E+00 3.807525635E-01
 4.238594055E+01 0.000000000E+00 3.801276386E-01
 4.268513870E+01 0.000000000E+00 3.795073330E-01
 4.298590088E+01 0.000000000E+00 3.788914084E-01
 4.328822708E+01 0.000000000E+00 3.782799542E-01
 4.359213257E+01 0.000000000E+00 3.776728809E-01
 4.389762115E+01 0.000000000E+00 3.770700991E-01
 4.420470047E+01 0.000000000E+00 3.764715493E-01
 4.451338196E+01 0.000000000E+00 3.758772016E-01
 4.482367325E+01 0.000000000E+00 3.752870858E-01
 4.513558578E+01 0.000000000E+00 3.747011721E-01
 4.544911957E+01 0.000000000E+00 3.741193414E-01
 4.576428986E+01 0.000000000E+00 3.735415637E-01
 4.608110046E+01 0.000000000E+00 3.729678392E-01
 4.639956665E+01 0.000000000E+00 3.723980784E-01
 4.671969223E+01 0.000000000E+00 3.718323410E-01
 4.704148483E+01 0.000000000E+00 3.712704778E-01
 4.736495972E+01 0.000000000E+00 3.707125187E-01
 4.769011688E+01 0.000000000E+00 3.701584935E-01
 4.801697159E+01 0.000000000E+00 3.696083128E-01
 4.834552765E+01 0.000000000E+00 3.690619171E-01
 4.867579651E+01 0.000000000E+00 3.685193062E-01
 4.900778961E+01 0.000000000E+00 3.679803908E-01
 4.934151459E+01 0.000000000E+00 3.674451113E-01
 4.967697525E+01 0.000000000E+00 3.669135869E-01
 5.001418686E+01 0.000000000E+00 3.663856685E-01
 5.035315704E+01 0.000000000E+00 3.658613861E-01
 5.069389725E+01 0.000000000E+00 3.653406501E-01
 5.103641129E+01 0.000000000E+00 3.648234308E-01
 5.138071060E+01 0.000000000E+00 3.643097281E-01
 5.172680283E+01 0.000000000E+00 3.637994528E-01
 5.207470322E+01 0.000000000E+00 3.632928431E-01
 5.242441559E+01 0.000000000E+00 3.627895415E-01
 5.277595139E+01 0.000000000E+00 3.622895479E-01
 5.312931824E+01 0.000000000E+00 3.617929220E-01
 5.348453140E+01 0.000000000E+00 3.612996638E-01
 5.384159470E+01 0.000000000E+00 3.608097136E-01
 5.420051956E+01 0.000000000E+00 3.603230417E-01
 5.456131363E+01 0.000000000E+00 3.598396480E-01
 5.492398834E+01 0.000000000E+00 3.593594730E-01
 5.528855896E+01 0.000000000E+00 3.588823974E-01
 5.565502548E+01 0.000000000E+00 3.584085405E-01
 5.602340317E+01 0.000000000E+00 3.579378724E-01
 5.639370346E+01 0.000000000E+00 3.574702442E-01
 5.676593399E+01 0.000000000E+00 3.570057452E-01
 5.714010620E+01 0.000000000E+00 3.565441966E-01
 5.751622772E+01 0.000000000E+00 3.560857475E-01
 5.789431000E+01 0.000000000E+00 3.556303680E-01
 5.827436066E+01 0.000000000E+00 3.551779091E-01
 5.865639496E+01 0.000000000E+00 3.547283709E-01
 5.904042435E+01 0.000000000E+00 3.542817533E-01
 5.942645264E+01 0.000000000E+00 3.538380563E-01
 5.981449509E+01 0.000000000E+00 3.533972502E-01
 6.020455933E+01 0.000000000E+00 3.529592752E-01
 6.059665680E+01 0.000000000E+00 3.525241315E-01
 6.099079895E+01 0.000000000E+00 3.520918190E-01
 6.138699722E+01 0.000000000E+00 3.516622782E-01
 6.178525925E+01 0.000000000E+00 3.512354791E-01
 6.218559647E+01 0.000000000E+00 3.508113921E-01
 6.258802414E+01 0.000000000E+00 3.503900170E-01
 6.299254608E+01 0.000000000E+00 3.499712646E-01
 6.339918137E+01 0.000000000E+00 3.495552540E-01
 6.380793381E+01 0.000000000E+00 3.491418958E-01
 6.421881866E+01 0.000000000E+00 3.487312198E-01
 6.463184357E+01 0.000000000E+00 3.483231366E-01
 6.504702759E+01 0.000000000E+00 3.479174972E-01
 6.546437073E+01 0.000000000E+00 3.475143909E-01
 6.588388824E+01 0.000000000E+00 3.471138477E-01
 6.630559540E+01 0.000000000E+00 3.467158377E-01
 6.672949982E+01 0.000000000E+00 3.463202417E-01
 6.715561676E+01 0.000000000E+00 3.459272087E-01
 6.758395386E+01 0.000000000E+00 3.455366790E-01
 6.801452637E+01 0.000000000E+00 3.451485336E-01
 6.844734192E+01 0.000000000E+00 3.447627723E-01
 6.888241577E+01 0.000000000E+00 3.443793952E-01
 6.931975555E+01 0.000000000E+00 3.439984024E-01
 6.975937653E+01 0.000000000E+00 3.436197639E-01
 7.020128632E+01 0.000000000E+00 3.432434201E-01
 7.064550781E+01 0.000000000E+00 3.428694308E-01
 7.109204102E+01 0.000000000E+00 3.424977958E-01
 7.154090118E+01 0.000000000E+00 3.421283960E-01
 7.199209595E+01 0.000000000E+00 3.417611420E-01
 7.244564819E+01 0.000000000E+00 3.413961828E-01
 7.290156555E+01 0.000000000E+00 3.410334289E-01
 7.335986328E+01 0.000000000E+00 3.406728506E-01
 7.382054901E+01 0.000000000E+00 3.403144777E-01
 7.428363037E+01 0.000000000E+00 3.399582207E-01
 7.474913025E+01 0.000000000E+00 3.396041989E-01
 7.521705627E+01 0.000000000E+00 3.392522931E-01
 7.568742371E+01 0.000000000E+00 3.389024138E-01
 7.616024780E+01 0.000000000E+00 3.385546207E-01
 7.663552856E+01 0.000000000E+00 3.382089436E-01
 7.711328888E+01 0.000000000E+00 3.378652930E-01
 7.759354401E+01 0.000000000E+00 3.375236690E-01
 7.807630157E+01 0.000000000E+00 3.371841311E-01
 7.856156921E+01 0.000000000E+00 3.368465304E-01
 7.904937744E+01 0.000000000E+00 3.365110159E-01
 7.953971863E+01 0.000000000E+00 3.361774385E-01
 8.003262329E+01 0.000000000E+00 3.358457088E-01
 8.052809906E+01 0.000000000E+00 3.355159461E-01
 8.102615356E+01 0.000000000E+00 3.351881206E-01
 8.152680206E+01 0.000000000E+00 3.348621726E-01
 8.203006744E+01 0.000000000E+00 3.345381618E-01
 8.253594971E+01 0.000000000E+00 3.342160583E-01
 8.304447937E+01 0.000000000E+00 3.338958323E-01
 8.355564880E+01 0.000000000E+00 3.335774243E-01
 8.406948853E+01 0.000000000E+00 3.332608044E-01
 8.458601379E+01 0.000000000E+00 3.329460621E-01
 8.510522461E+01 0.000000000E+00 3.326331079E-01
 8.562714386E+01 0.000000000E+00 3.323219121E-01
 8.615177917E+01 0.000000000E+00 3.320125639E-01
 8.667915344E+01 0.000000000E+00 3.317049742E-01
 8.720928192E+01 0.000000000E+00 3.313991129E-01
 8.774217224E+01 0.000000000E+00 3.310950100E-01
 8.827783203E+01 0.000000000E+00 3.307925165E-01
 8.881629181E+01 0.000000000E+00 3.304918110E-01
 8.935755920E+01 0.000000000E+00 3.301927447E-01
 8.990164948E+01 0.000000000E+00 3.298953772E-01
 9.044857788E+01 0.000000000E+00 3.295996785E-01
 9.099835205E+01 0.000000000E+00 3.293056488E-01
 9.155099487E+01 0.000000000E+00 3.290132582E-01
 9.210652161E+01 0.000000000E+00 3.287225068E-01
 9.266493988E+01 0.000000000E+00 3.284333050E-01
 9.322627258E+01 0.000000000E+00 3.281457424E-01
 9.379052734E+01 0.000000000E+00 3.278597593E-01
 9.435772705E+01 0.000000000E+00 3.275753260E-01
 9.492788696E+01 0.000000000E+00 3.272925317E-01
 9.550101471E+01 0.000000000E+00 3.270111978E-01
 9.607713318E+01 0.000000000E+00 3.267314136E-01
 9.665625000E+01 0.000000000E+00 3.264531791E-01
 9.723839569E+01 0.000000000E+00 3.261764646E-01
 9.782357025E+01 0.000000000E+00 3.259012103E-01
 9.841179657E+01 0.000000000E+00 3.256274760E-01
 9.900308990E+01 0.000000000E+00 3.253551722E-01
 9.959746552E+01 0.000000000E+00 3.250843585E-01
 1.001949387E+02 0.000000000E+00 3.248150051E-01
 1.007955322E+02 0.000000000E+00 3.245471418E-01
 1.013992538E+02 0.000000000E+00 3.242806792E-01
 1.020061188E+02 0.000000000E+00 3.240156472E-01
 1.026161499E+02 0.000000000E+00 3.237520158E-01
 1.032293625E+02 0.000000000E+00 3.234898150E-01
 1.038457718E+02 0.000000000E+00 3.232290447E-01
 1.044653931E+02 0.000000000E+00 3.229696155E-01
 1.050882492E+02 0.000000000E+00 3.227116168E-01
 1.057143478E+02 0.000000000E+00 3.224549592E-01
 1.063437195E+02 0.000000000E+00 3.221996129E-01
 1.069763641E+02 0.000000000E+00 3.219456375E-01
 1.076123047E+02 0.000000000E+00 3.216929436E-01
 1.082515717E+02 0.000000000E+00 3.214415908E-01
 1.088941650E+02 0.000000000E+00 3.211915493E-01
 1.095401077E+02 0.000000000E+00 3.209428191E-01
 1.101894150E+02 0.000000000E+00 3.206954002E-01
 1.108421097E+02 0.000000000E+00 3.204492331E-01
 1.114982147E+02 0.000000000E+00 3.202043176E-01
 1.121577301E+02 0.000000000E+00 3.199607432E-01
 1.128206863E+02 0.000000000E+00 3.197183609E-01
 1.134871063E+02 0.000000000E+00 3.194772303E-01
 1.141569901E+02 0.000000000E+00 3.192373812E-01
 1.148303757E+02 0.000000000E+00 3.189986944E-01
 1.155072632E+02 0.000000000E+00 3.187611997E-01
 1.161876907E+02 0.000000000E+00 3.185249567E-01
 1.168716583E+02 0.000000000E+00 3.182899356E-01
 1.175591888E+02 0.000000000E+00 3.180561066E-01
 1.182503128E+02 0.000000000E+00 3.178233802E-01
 1.189450302E+02 0.000000000E+00 3.175918460E-01
 1.196433792E+02 0.000000000E+00 3.173615038E-01
 1.203453598E+02 0.000000000E+00 3.171323240E-01
 1.210510025E+02 0.000000000E+00 3.169042468E-01
 1.217603302E+02 0.000000000E+00 3.166773915E-01
 1.224733505E+02 0.000000000E+00 3.164516091E-01
 1.231900864E+02 0.000000000E+00 3.162269294E-01
 1.239105682E+02 0.000000000E+00 3.160034120E-01
 1.246347961E+02 0.000000000E+00 3.157809973E-01
 1.253628082E+02 0.000000000E+00 3.155596554E-01
 1.260946121E+02 0.000000000E+00 3.153394461E-01
 1.268302307E+02 0.000000000E+00 3.151203096E-01
 1.275696793E+02 0.000000000E+00 3.149022460E-01
 1.283129883E+02 0.000000000E+00 3.146851957E-01
 1.290601807E+02 0.000000000E+00 3.144692779E-01
 1.298112488E+02 0.000000000E+00 3.142544031E-01
 1.305662537E+02 0.000000000E+00 3.140405416E-01
 1.313251801E+02 0.000000000E+00 3.138277233E-01
 1.320880737E+02 0.000000000E+00 3.136159480E-01
 1.328549347E+02 0.000000000E+00 3.134051859E-01
 1.336257935E+02 0.000000000E+00 3.131954074E-01
 1.344006805E+02 0.000000000E+00 3.129867017E-01
 1.351796112E+02 0.000000000E+00 3.127789497E-01
 1.359625854E+02 0.000000000E+00 3.125722408E-01
 1.367496490E+02 0.000000000E+00 3.123664558E-01
 1.375408173E+02 0.000000000E+00 3.121616840E-01
 1.383361206E+02 0.000000000E+00 3.119578958E-01
 1.391355591E+02 0.000000000E+00 3.117550015E-01
 1.399391632E+02 0.000000000E+00 3.115531206E-01
 1.407469635E+02 0.000000000E+00 3.113521934E-01
 1.415589752E+02 0.000000000E+00 3.111521900E-01
 1.423752136E+02 0.000000000E+00 3.109531403E-01
 1.431957092E+02 0.000000000E+00 3.107550442E-01
 1.440204926E+02 0.000000000E+00 3.105578125E-01
 1.448495636E+02 0.000000000E+00 3.103615344E-01
 1.456829681E+02 0.000000000E+00 3.101661801E-01
 1.465207062E+02 0.000000000E+00 3.099717200E-01
 1.473628235E+02 0.000000000E+00 3.097781241E-01
 1.482093201E+02 0.000000000E+00 3.095854223E-01
 1.490602417E+02 0.000000000E+00 3.093936145E-01
 1.499155884E+02 0.000000000E+00 3.092027009E-01
 1.507753906E+02 0.000000000E+00 3.090126216E-01
 1.516396942E+02 0.000000000E+00 3.088234663E-01
 1.525084839E+02 0.000000000E+00 3.086350858E-01
 1.533818207E+02 0.000000000E+00 3.084475994E-01
 1.542597046E+02 0.000000000E+00 3.082609475E-01
 1.551421509E+02 0.000000000E+00 3.080751598E-01
 1.560292206E+02 0.000000000E+00 3.078901172E-01
 1.569208984E+02 0.000000000E+00 3.077059686E-01
 1.578172302E+02 0.000000000E+00 3.075226247E-01
 1.587182465E+02 0.000000000E+00 3.073400557E-01
 1.596239471E+02 0.000000000E+00 3.071582913E-01
 1.605343628E+02 0.000000000E+00 3.069773018E-01
 1.614495392E+02 0.000000000E+00 3.067971170E-01
 1.623694916E+02 0.000000000E+00 3.066177368E-01
 1.632942200E+02 0.000000000E+00 3.064390719E-01
 1.642237854E+02 0.000000000E+00 3.062612116E-01
 1.651581879E+02 0.000000000E+00 3.060840964E-01
 1.660974731E+02 0.000000000E+00 3.059076667E-01
 1.670416412E+02 0.000000000E+00 3.057320118E-01
 1.679907379E+02 0.000000000E+00 3.055570722E-01
 1.689447937E+02 0.000000000E+00 3.053828478E-01
 1.699038086E+02 0.000000000E+00 3.052093387E-01
 1.708678284E+02 0.000000000E+00 3.050364852E-01
 1.718368683E+02 0.000000000E+00 3.048643470E-01
 1.728109741E+02 0.000000000E+00 3.046928644E-01
 1.737901459E+02 0.000000000E+00 3.045220375E-01
 1.747744293E+02 0.000000000E+00 3.043518364E-01
 1.757638397E+02 0.000000000E+00 3.041822612E-01
 1.767584076E+02 0.000000000E+00 3.040132523E-01
 1.777581635E+02 0.000000000E+00 3.038448691E-01
 1.787631378E+02 0.000000000E+00 3.036770523E-01
 1.797733459E+02 0.000000000E+00 3.035097420E-01
 1.807888184E+02 0.000000000E+00 3.033429384E-01
 1.818095856E+02 0.000000000E+00 3.031766713E-01
 1.828356781E+02 0.000000000E+00 3.030107617E-01
 1.838671265E+02 0.000000000E+00 3.028452396E-01
 1.849039459E+02 0.000000000E+00 3.026801050E-01
 1.859461670E+02 0.000000000E+00 3.025152087E-01
 1.869938202E+02 0.000000000E+00 3.023504913E-01
 1.880469360E+02 0.000000000E+00 3.021858335E-01
 1.891055603E+02 0.000000000E+00 3.020212054E-01
 1.901696777E+02 0.000000000E+00 3.018563092E-01
 1.912393646E+02 0.000000000E+00 3.016910553E-01
 1.923146057E+02 0.000000000E+00 3.015251458E-01
 1.933954773E+02 0.000000000E+00 3.013581038E-01
 1.944819641E+02 0.000000000E+00 3.011897504E-01
 1.955741272E+02 0.000000000E+00 3.010197878E-01
 1.966719818E+02 0.000000000E+00 3.008466363E-01
 1.977755585E+02 0.000000000E+00 3.006796837E-01
 1.988848877E+02 0.000000000E+00 3.005019128E-01
 2.000000000E+02 0.000000000E+00 3.004033864E-01
ZONE T="TAU"
 0.000000000E+00 0.000000000E+00 5.023889542E-01
 7.821894437E-02 0.000000000E+00 5.022614002E-01
 1.568456888E-01 0.000000000E+00 5.021055937E-01
 2.358823568E-01 0.000000000E+00 5.019354224E-01
 3.153310716E-01 0.000000000E+00 5.017686486E-01
 3.951940238E-01 0.000000000E+00 5.016193390E-01
 4.754733145E-01 0.000000000E+00 5.014836192E-01
 5.561711788E-01 0.000000000E+00 5.013697147E-01
 6.372897029E-01 0.000000000E+00 5.012694001E-01
 7.188312411E-01 0.000000000E+00 5.011857152E-01
 8.007978201E-01 0.000000000E+00 5.011126995E-01
 8.831917644E-01 0.000000000E+00 5.010507703E-01
 9.660152793E-01 0.000000000E+00 5.009966493E-01
 1.049270511E+00 0.000000000E+00 5.009498000E-01
 1.132959962E+00 0.000000000E+00 5.009083748E-01
 1.217085600E+00 0.000000000E+00 5.008720160E-01
 1.301649928E+00 0.000000000E+00 5.008392334E-01
 1.386654973E+00 0.000000000E+00 5.008099079E-01
 1.472103357E+00 0.000000000E+00 5.007836223E-01
 1.557997227E+00 0.000000000E+00 5.007596016E-01
 1.644338846E+00 0.000000000E+00 5.007377863E-01
 1.731130600E+00 0.000000000E+00 5.007177591E-01
 1.818374872E+00 0.000000000E+00 5.006992817E-01
 1.906073928E+00 0.000000000E+00 5.006823540E-01
 1.994230270E+00 0.000000000E+00 5.006664395E-01
 2.082846165E+00 0.000000000E+00 5.006516576E-01
 2.171924114E+00 0.000000000E+00 5.006381273E-01
 2.261466503E+00 0.000000000E+00 5.006253719E-01
 2.351475716E+00 0.000000000E+00 5.006133914E-01
 2.441954136E+00 0.000000000E+00 5.006022453E-01
 2.532904387E+00 0.000000000E+00 5.005915761E-01
 2.624328852E+00 0.000000000E+00 5.005818605E-01
 2.716229677E+00 0.000000000E+00 5.005720258E-01
 2.808609962E+00 0.000000000E+00 5.005629063E-01
 2.901471615E+00 0.000000000E+00 5.005546212E-01
 2.994817495E+00 0.000000000E+00 5.005463958E-01
 3.088649988E+00 0.000000000E+00 5.005388856E-01
 3.182971954E+00 0.000000000E+00 5.005315542E-01
 3.277785301E+00 0.000000000E+00 5.005246401E-01
 3.373093128E+00 0.000000000E+00 5.005180836E-01
 3.468897820E+00 0.000000000E+00 5.005116463E-01
 3.565201998E+00 0.000000000E+00 5.005054474E-01
 3.662008286E+00 0.000000000E+00 5.004997253E-01
 3.759319305E+00 0.000000000E+00 5.004940629E-01
 3.857137680E+00 0.000000000E+00 5.004886985E-01
 3.955466032E+00 0.000000000E+00 5.004835725E-01
 4.054306984E+00 0.000000000E+00 5.004785657E-01
 4.153663158E+00 0.000000000E+00 5.004739761E-01
 4.253537178E+00 0.000000000E+00 5.004690289E-01
 4.353932381E+00 0.000000000E+00 5.004644394E-01
 4.454850674E+00 0.000000000E+00 5.004602671E-01
 4.556295395E+00 0.000000000E+00 5.004560351E-01
 4.658268452E+00 0.000000000E+00 5.004520416E-01
 4.760773659E+00 0.000000000E+00 5.004481077E-01
 4.863812923E+00 0.000000000E+00 5.004443526E-01
 4.967389584E+00 0.000000000E+00 5.004407763E-01
 5.071506500E+00 0.000000000E+00 5.004370809E-01
 5.176166058E+00 0.000000000E+00 5.004335046E-01
 5.281371117E+00 0.000000000E+00 5.004302859E-01
 5.387124538E+00 0.000000000E+00 5.004270077E-01
 5.493429661E+00 0.000000000E+00 5.004238486E-01
 5.600288868E+00 0.000000000E+00 5.004207492E-01
 5.707705021E+00 0.000000000E+00 5.004178286E-01
 5.815681458E+00 0.000000000E+00 5.004148483E-01
 5.924220562E+00 0.000000000E+00 5.004118085E-01
 6.033325672E+00 0.000000000E+00 5.004088283E-01
 6.142999649E+00 0.000000000E+00 5.004060268E-01
 6.253245354E+00 0.000000000E+00 5.004033446E-01
 6.364065647E+00 0.000000000E+00 5.004006624E-01
 6.475464344E+00 0.000000000E+00 5.003980994E-01
 6.587443352E+00 0.000000000E+00 5.003955364E-01
 6.700006008E+00 0.000000000E+00 5.003931522E-01
 6.813155651E+00 0.000000000E+00 5.003904700E-01
 6.926895618E+00 0.000000000E+00 5.003879666E-01
 7.041227818E+00 0.000000000E+00 5.003856421E-01
 7.156156540E+00 0.000000000E+00 5.003832579E-01
 7.271684647E+00 0.000000000E+00 5.003809333E-01
 7.387814999E+00 0.000000000E+00 5.003786087E-01
 7.504550457E+00 0.000000000E+00 5.003762245E-01
 7.621894836E+00 0.000000000E+00 5.003741980E-01
 7.739850521E+00 0.000000000E+00 5.003716946E-01
 7.858421803E+00 0.000000000E+00 5.003692508E-01
 7.977611065E+00 0.000000000E+00 5.003672242E-01
 8.097421646E+00 0.000000000E+00 5.003649592E-01
 8.217856407E+00 0.000000000E+00 5.003628731E-01
 8.338919640E+00 0.000000000E+00 5.003606677E-01
 8.460614204E+00 0.000000000E+00 5.003585219E-01
 8.582942963E+00 0.000000000E+00 5.003564954E-01
 8.705908775E+00 0.000000000E+00 5.003542304E-01
 8.829516411E+00 0.000000000E+00 5.003520250E-01
 8.953768730E+00 0.000000000E+00 5.003499985E-01
 9.078668594E+00 0.000000000E+00 5.003479123E-01
 9.204219818E+00 0.000000000E+00 5.003458261E-01
 9.330425262E+00 0.000000000E+00 5.003437996E-01
 9.457288742E+00 0.000000000E+00 5.003417134E-01
 9.584813118E+00 0.000000000E+00 5.003397465E-01
 9.713003159E+00 0.000000000E+00 5.003374219E-01