VARIABLES = "X","Y","mut"
ZONE T="CFL3D"
 7.500000000E-01 5.000025034E-02 7.315496407E-13
 7.500000000E-01 5.000074208E-02 1.111806272E-10
 7.500000000E-01 5.000124127E-02 2.105785324E-09
 7.500000000E-01 5.000174046E-02 1.529073046E-08
 7.500000000E-01 5.000223219E-02 6.676069120E-08
 7.500000000E-01 5.000273138E-02 2.144516884E-07
 7.500000000E-01 5.000323057E-02 5.623172115E-07
 7.500000000E-01 5.000372976E-02 1.277522188E-06
 7.500000000E-01 5.000422895E-02 2.609733656E-06
 7.500000000E-01 5.000473559E-02 4.912674285E-06
 7.500000000E-01 5.000524223E-02 8.668157534E-06
 7.500000000E-01 5.000574887E-02 1.451287244E-05
 7.500000000E-01 5.000625551E-02 2.326820140E-05
 7.500000000E-01 5.000676960E-02 3.597340401E-05
 7.500000000E-01 5.000728369E-02 5.392252933E-05
 7.500000000E-01 5.000780523E-02 7.870534318E-05
 7.500000000E-01 5.000832677E-02 1.122527901E-04
 7.500000000E-01 5.000884831E-02 1.568871958E-04
 7.500000000E-01 5.000936985E-02 2.153777168E-04
 7.500000000E-01 5.000990629E-02 2.910013427E-04
 7.500000000E-01 5.001044273E-02 3.876097326E-04
 7.500000000E-01 5.001097918E-02 5.097023677E-04
 7.500000000E-01 5.001153052E-02 6.625060923E-04
 7.500000000E-01 5.001208186E-02 8.520608535E-04
 7.500000000E-01 5.001263320E-02 1.085312804E-03
 7.500000000E-01 5.001319200E-02 1.370212995E-03
 7.500000000E-01 5.001375079E-02 1.715823193E-03
 7.500000000E-01 5.001432449E-02 2.132426947E-03
 7.500000000E-01 5.001489818E-02 2.631646581E-03
 7.500000000E-01 5.001547933E-02 3.226561937E-03
 7.500000000E-01 5.001607537E-02 3.931836225E-03
 7.500000000E-01 5.001667142E-02 4.763839766E-03
 7.500000000E-01 5.001726747E-02 5.740773864E-03
 7.500000000E-01 5.001787841E-02 6.882794201E-03
 7.500000000E-01 5.001848936E-02 8.212123998E-03
 7.500000000E-01 5.001911521E-02 9.753165767E-03
 7.500000000E-01 5.001974851E-02 1.153258979E-02
 7.500000000E-01 5.002038181E-02 1.357942540E-02
 7.500000000E-01 5.002103746E-02 1.592510939E-02
 7.500000000E-01 5.002169311E-02 1.860353351E-02
 7.500000000E-01 5.002235621E-02 2.165104821E-02
 7.500000000E-01 5.002303421E-02 2.510644495E-02
 7.500000000E-01 5.002371222E-02 2.901089936E-02
 7.500000000E-01 5.002440512E-02 3.340788558E-02
 7.500000000E-01 5.002510548E-02 3.834304214E-02
 7.500000000E-01 5.002582073E-02 4.386398196E-02
 7.500000000E-01 5.002655089E-02 5.002013966E-02
 7.500000000E-01 5.002728105E-02 5.686245114E-02
 7.500000000E-01 5.002802610E-02 6.444312632E-02
 7.500000000E-01 5.002878606E-02 7.281532139E-02
 7.500000000E-01 5.002955347E-02 8.203278482E-02
 7.500000000E-01 5.003033578E-02 9.214954078E-02
 7.500000000E-01 5.003112555E-02 1.032195017E-01
 7.500000000E-01 5.003193021E-02 1.152961031E-01
 7.500000000E-01 5.003274977E-02 1.284319013E-01
 7.500000000E-01 5.003358424E-02 1.426783949E-01
 7.500000000E-01 5.003443360E-02 1.580857038E-01
 7.500000000E-01 5.003529042E-02 1.747018993E-01
 7.500000000E-01 5.003616214E-02 1.925733984E-01
 7.500000000E-01 5.003705621E-02 2.117443979E-01
 7.500000000E-01 5.003795028E-02 2.322567999E-01
 7.500000000E-01 5.003887415E-02 2.541500032E-01
 7.500000000E-01 5.003981292E-02 2.774612904E-01
 7.500000000E-01 5.004076660E-02 3.022254109E-01
 7.500000000E-01 5.004172772E-02 3.284746110E-01
 7.500000000E-01 5.004271865E-02 3.562391996E-01
 7.500000000E-01 5.004371703E-02 3.855473101E-01
 7.500000000E-01 5.004473776E-02 4.164251983E-01
 7.500000000E-01 5.004577339E-02 4.488972127E-01
 7.500000000E-01 5.004683137E-02 4.829863012E-01
 7.500000000E-01 5.004790425E-02 5.187140107E-01
 7.500000000E-01 5.004900694E-02 5.561004877E-01
 7.500000000E-01 5.005011708E-02 5.951656103E-01
 7.500000000E-01 5.005125701E-02 6.359276772E-01
 7.500000000E-01 5.005240440E-02 6.784049869E-01
 7.500000000E-01 5.005358905E-02 7.226154804E-01
 7.500000000E-01 5.005478859E-02 7.685766220E-01
 7.500000000E-01 5.005601048E-02 8.163059950E-01
 7.500000000E-01 5.005725473E-02 8.658211231E-01
 7.500000000E-01 5.005852133E-02 9.171398282E-01
 7.500000000E-01 5.005981028E-02 9.702802896E-01
 7.500000000E-01 5.006112903E-02 1.025261045E+00
 7.500000000E-01 5.006247014E-02 1.082100987E+00
 7.500000000E-01 5.006383359E-02 1.140820026E+00
 7.500000000E-01 5.006523430E-02 1.201437950E+00
 7.500000000E-01 5.006664991E-02 1.263975978E+00
 7.500000000E-01 5.006809533E-02 1.328454971E+00
 7.500000000E-01 5.006957054E-02 1.394896984E+00
 7.500000000E-01 5.007107556E-02 1.463325977E+00
 7.500000000E-01 5.007259548E-02 1.533764958E+00
 7.500000000E-01 5.007416010E-02 1.606238008E+00
 7.500000000E-01 5.007575452E-02 1.680770993E+00
 7.500000000E-01 5.007737875E-02 1.757388949E+00
 7.500000000E-01 5.007902533E-02 1.836119056E+00
 7.500000000E-01 5.008071661E-02 1.916988969E+00
 7.500000000E-01 5.008243024E-02 2.000025988E+00
 7.500000000E-01 5.008418113E-02 2.085258007E+00
 7.500000000E-01 5.008596182E-02 2.172717094E+00
 7.500000000E-01 5.008778721E-02 2.262432098E+00
 7.500000000E-01 5.008964241E-02 2.354433060E+00
 7.500000000E-01 5.009153485E-02 2.448753119E+00
 7.500000000E-01 5.009346455E-02 2.545423031E+00
 7.500000000E-01 5.009543896E-02 2.644475937E+00
 7.500000000E-01 5.009743571E-02 2.745944977E+00
 7.500000000E-01 5.009949207E-02 2.849864960E+00
 7.500000000E-01 5.010157824E-02 2.956269979E+00
 7.500000000E-01 5.010370165E-02 3.065195084E+00
 7.500000000E-01 5.010586977E-02 3.176676035E+00
 7.500000000E-01 5.010809004E-02 3.290747881E+00
 7.500000000E-01 5.011034012E-02 3.407449007E+00
 7.500000000E-01 5.011264980E-02 3.526815891E+00
 7.500000000E-01 5.011498928E-02 3.648885965E+00
 7.500000000E-01 5.011738837E-02 3.773698092E+00
 7.500000000E-01 5.011983216E-02 3.901288986E+00
 7.500000000E-01 5.012232065E-02 4.031700134E+00
 7.500000000E-01 5.012486875E-02 4.164968014E+00
 7.500000000E-01 5.012746155E-02 4.301135063E+00
 7.500000000E-01 5.013009906E-02 4.440238953E+00
 7.500000000E-01 5.013279617E-02 4.582322121E+00
 7.500000000E-01 5.013555288E-02 4.727424145E+00
 7.500000000E-01 5.013835430E-02 4.875586987E+00
 7.500000000E-01 5.014121532E-02 5.026850224E+00
 7.500000000E-01 5.014413595E-02 5.181255817E+00
 7.500000000E-01 5.014711618E-02 5.338848114E+00
 7.500000000E-01 5.015015602E-02 5.499666214E+00
 7.500000000E-01 5.015325546E-02 5.663753986E+00
 7.500000000E-01 5.015641451E-02 5.831151962E+00
 7.500000000E-01 5.015963316E-02 6.001904011E+00
 7.500000000E-01 5.016292632E-02 6.176053047E+00
 7.500000000E-01 5.016627908E-02 6.353641033E+00
 7.500000000E-01 5.016970634E-02 6.534709930E+00
 7.500000000E-01 5.017320067E-02 6.719305038E+00
 7.500000000E-01 5.017676204E-02 6.907465935E+00
 7.500000000E-01 5.018039793E-02 7.099236965E+00
 7.500000000E-01 5.018410832E-02 7.294661045E+00
 7.500000000E-01 5.018789321E-02 7.493779182E+00
 7.500000000E-01 5.019175261E-02 7.696634769E+00
 7.500000000E-01 5.019569397E-02 7.903271198E+00
 7.500000000E-01 5.019970238E-02 8.113727570E+00
 7.500000000E-01 5.020380765E-02 8.328046799E+00
 7.500000000E-01 5.020798743E-02 8.546270370E+00
 7.500000000E-01 5.021224916E-02 8.768440247E+00
 7.500000000E-01 5.021660775E-02 8.994595528E+00
 7.500000000E-01 5.022104830E-02 9.224777222E+00
 7.500000000E-01 5.022557825E-02 9.459023476E+00
 7.500000000E-01 5.023020506E-02 9.697374344E+00
 7.500000000E-01 5.023491383E-02 9.939868927E+00
 7.500000000E-01 5.023972690E-02 1.018653965E+01
 7.500000000E-01 5.024463683E-02 1.043743992E+01
 7.500000000E-01 5.024965107E-02 1.069258976E+01
 7.500000000E-01 5.025476217E-02 1.095203018E+01
 7.500000000E-01 5.025997013E-02 1.121578979E+01
 7.500000000E-01 5.026528984E-02 1.148390961E+01
 7.500000000E-01 5.027072132E-02 1.175642014E+01
 7.500000000E-01 5.027624965E-02 1.203335953E+01
 7.500000000E-01 5.028190464E-02 1.231474018E+01
 7.500000000E-01 5.028767139E-02 1.260060978E+01
 7.500000000E-01 5.029354990E-02 1.289099026E+01
 7.500000000E-01 5.029955506E-02 1.318591022E+01
 7.500000000E-01 5.030567944E-02 1.348540974E+01
 7.500000000E-01 5.031192303E-02 1.378952026E+01
 7.500000000E-01 5.031830072E-02 1.409825993E+01
 7.500000000E-01 5.032479763E-02 1.441166973E+01
 7.500000000E-01 5.033143610E-02 1.472978020E+01
 7.500000000E-01 5.033820868E-02 1.505261993E+01
 7.500000000E-01 5.034511536E-02 1.538020992E+01
 7.500000000E-01 5.035216361E-02 1.571257973E+01
 7.500000000E-01 5.035935342E-02 1.604976082E+01
 7.500000000E-01 5.036669225E-02 1.639175987E+01
 7.500000000E-01 5.037418008E-02 1.673863029E+01
 7.500000000E-01 5.038182437E-02 1.709037018E+01
 7.500000000E-01 5.038961768E-02 1.744701958E+01
 7.500000000E-01 5.039756745E-02 1.780858994E+01
 7.500000000E-01 5.040568113E-02 1.817510986E+01
 7.500000000E-01 5.041396618E-02 1.854659081E+01
 7.500000000E-01 5.042241514E-02 1.892304039E+01
 7.500000000E-01 5.043102801E-02 1.930450058E+01
 7.500000000E-01 5.043982714E-02 1.969098091E+01
 7.500000000E-01 5.044880509E-02 2.008247948E+01
 7.500000000E-01 5.045795441E-02 2.047903061E+01
 7.500000000E-01 5.046729743E-02 2.088064003E+01
 7.500000000E-01 5.047683418E-02 2.128731918E+01
 7.500000000E-01 5.048656464E-02 2.169908905E+01
 7.500000000E-01 5.049648881E-02 2.211595917E+01
 7.500000000E-01 5.050661415E-02 2.253792953E+01
 7.500000000E-01 5.051694810E-02 2.296501923E+01
 7.500000000E-01 5.052749068E-02 2.339723969E+01
 7.500000000E-01 5.053824186E-02 2.383459091E+01
 7.500000000E-01 5.054922402E-02 2.427709007E+01
 7.500000000E-01 5.056042224E-02 2.472475052E+01
 7.500000000E-01 5.057185143E-02 2.517756081E+01
 7.500000000E-01 5.058351159E-02 2.563554955E+01
 7.500000000E-01 5.059541017E-02 2.609870911E+01
 7.500000000E-01 5.060754716E-02 2.656706047E+01
 7.500000000E-01 5.061994493E-02 2.704060936E+01
 7.500000000E-01 5.063258111E-02 2.751935959E+01
 7.500000000E-01 5.064547062E-02 2.800333023E+01
 7.500000000E-01 5.065863580E-02 2.849251938E+01
 7.500000000E-01 5.067206174E-02 2.898694992E+01
 7.500000000E-01 5.068576336E-02 2.948662949E+01
 7.500000000E-01 5.069974065E-02 2.999157906E+01
 7.500000000E-01 5.071400851E-02 3.050180054E+01
 7.500000000E-01 5.072855949E-02 3.101733017E+01
 7.500000000E-01 5.074341595E-02 3.153817940E+01
 7.500000000E-01 5.075857043E-02 3.206436920E+01
 7.500000000E-01 5.077403039E-02 3.259592819E+01
 7.500000000E-01 5.078980327E-02 3.313288879E+01
 7.500000000E-01 5.080591142E-02 3.367528915E+01
 7.500000000E-01 5.082233250E-02 3.422314835E+01
 7.500000000E-01 5.083909631E-02 3.477653122E+01
 7.500000000E-01 5.085619539E-02 3.533546066E+01
 7.500000000E-01 5.087364465E-02 3.590000916E+01
 7.500000000E-01 5.089145154E-02 3.647021866E+01
 7.500000000E-01 5.090962350E-02 3.704616928E+01
 7.500000000E-01 5.092816055E-02 3.762791061E+01
 7.500000000E-01 5.094707012E-02 3.821554184E+01
 7.500000000E-01 5.096637458E-02 3.880913162E+01
 7.500000000E-01 5.098606646E-02 3.940877914E+01
 7.500000000E-01 5.100616813E-02 4.001457977E+01
 7.500000000E-01 5.102667212E-02 4.062667084E+01
 7.500000000E-01 5.104759336E-02 4.124515152E+01
 7.500000000E-01 5.106893927E-02 4.187015915E+01
 7.500000000E-01 5.109071732E-02 4.250183868E+01
 7.500000000E-01 5.111294985E-02 4.314035034E+01
 7.500000000E-01 5.113562942E-02 4.378585815E+01
 7.500000000E-01 5.115877092E-02 4.443854904E+01
 7.500000000E-01 5.118238181E-02 4.509862137E+01
 7.500000000E-01 5.120646954E-02 4.576626968E+01
 7.500000000E-01 5.123105645E-02 4.644173813E+01
 7.500000000E-01 5.125615001E-02 4.712525940E+01
 7.500000000E-01 5.128173530E-02 4.781710052E+01
 7.500000000E-01 5.130785704E-02 4.851752853E+01
 7.500000000E-01 5.133450776E-02 4.922684097E+01
 7.500000000E-01 5.136169493E-02 4.994533157E+01
 7.500000000E-01 5.138944089E-02 5.067335129E+01
 7.500000000E-01 5.141775310E-02 5.141122055E+01
 7.500000000E-01 5.144664645E-02 5.215932846E+01
 7.500000000E-01 5.147612095E-02 5.291804886E+01
 7.500000000E-01 5.150619894E-02 5.368778992E+01
 7.500000000E-01 5.153688788E-02 5.446895981E+01
 7.500000000E-01 5.156820267E-02 5.526200104E+01
 7.500000000E-01 5.160015821E-02 5.606737900E+01
 7.500000000E-01 5.163276196E-02 5.688555145E+01
 7.500000000E-01 5.166602880E-02 5.771701813E+01
 7.500000000E-01 5.169997364E-02 5.856227112E+01
 7.500000000E-01 5.173461139E-02 5.942184067E+01
 7.500000000E-01 5.176995695E-02 6.029624176E+01
 7.500000000E-01 5.180601776E-02 6.118600845E+01
 7.500000000E-01 5.184280872E-02 6.209170151E+01
 7.500000000E-01 5.188035965E-02 6.301385117E+01
 7.500000000E-01 5.191867054E-02 6.395301056E+01
 7.500000000E-01 5.195776373E-02 6.490972900E+01
 7.500000000E-01 5.199765414E-02 6.588453674E+01
 7.500000000E-01 5.203835666E-02 6.687798309E+01
 7.500000000E-01 5.207988620E-02 6.789053345E+01
 7.500000000E-01 5.212226510E-02 6.892272949E+01
 7.500000000E-01 5.216550082E-02 6.997502136E+01
 7.500000000E-01 5.220961571E-02 7.104783630E+01
 7.500000000E-01 5.225463957E-02 7.214157104E+01
 7.500000000E-01 5.230057240E-02 7.325657654E+01
 7.500000000E-01 5.234745145E-02 7.439315033E+01
 7.500000000E-01 5.239526927E-02 7.555152893E+01
 7.500000000E-01 5.244407058E-02 7.673188782E+01
 7.500000000E-01 5.249387026E-02 7.793433380E+01
 7.500000000E-01 5.254468322E-02 7.915886688E+01
 7.500000000E-01 5.259652436E-02 8.040544128E+01
 7.500000000E-01 5.264942348E-02 8.167386627E+01
 7.500000000E-01 5.270341039E-02 8.296389008E+01
 7.500000000E-01 5.275848508E-02 8.427512360E+01
 7.500000000E-01 5.281468481E-02 8.560709381E+01
 7.500000000E-01 5.287203193E-02 8.695915222E+01
 7.500000000E-01 5.293054879E-02 8.833059692E+01
 7.500000000E-01 5.299025029E-02 8.972055817E+01
 7.500000000E-01 5.305117369E-02 9.112802887E+01
 7.500000000E-01 5.311334133E-02 9.255187225E+01
 7.500000000E-01 5.317676812E-02 9.399083710E+01
 7.500000000E-01 5.324149132E-02 9.544351196E+01
 7.500000000E-01 5.330753326E-02 9.690837097E+01
 7.500000000E-01 5.337491632E-02 9.838374329E+01
 7.500000000E-01 5.344367027E-02 9.986782837E+01
 7.500000000E-01 5.351383239E-02 1.013587036E+02
 7.500000000E-01 5.358542502E-02 1.028544006E+02
 7.500000000E-01 5.365847051E-02 1.043526993E+02
 7.500000000E-01 5.373300612E-02 1.058515015E+02
 7.500000000E-01 5.380906165E-02 1.073481979E+02
 7.500000000E-01 5.388666689E-02 1.088405991E+02
 7.500000000E-01 5.396585166E-02 1.103262024E+02
 7.500000000E-01 5.404664576E-02 1.118023987E+02
 7.500000000E-01 5.412909389E-02 1.132665024E+02
 7.500000000E-01 5.421321094E-02 1.147160034E+02
 7.500000000E-01 5.429904908E-02 1.161481018E+02
 7.500000000E-01 5.438663065E-02 1.175602036E+02
 7.500000000E-01 5.447600782E-02 1.189496002E+02
 7.500000000E-01 5.456719548E-02 1.203134995E+02
 7.500000000E-01 5.466024578E-02 1.216492004E+02
 7.500000000E-01 5.475518852E-02 1.229541016E+02
 7.500000000E-01 5.485206842E-02 1.242255020E+02
 7.500000000E-01 5.495092273E-02 1.254608002E+02
 7.500000000E-01 5.505178869E-02 1.266574020E+02
 7.500000000E-01 5.515471101E-02 1.278127975E+02
 7.500000000E-01 5.525971949E-02 1.289244995E+02
 7.500000000E-01 5.536688119E-02 1.299900970E+02
 7.500000000E-01 5.547621846E-02 1.310070953E+02
 7.500000000E-01 5.558779091E-02 1.319732971E+02
 7.500000000E-01 5.570162833E-02 1.328863068E+02
 7.500000000E-01 5.581779033E-02 1.337440033E+02
 7.500000000E-01 5.593632162E-02 1.345442963E+02
 7.500000000E-01 5.605725944E-02 1.352848969E+02
 7.500000000E-01 5.618066341E-02 1.359636993E+02
 7.500000000E-01 5.630658567E-02 1.365787964E+02
 7.500000000E-01 5.643506348E-02 1.371280975E+02
 7.500000000E-01 5.656617135E-02 1.376094971E+02
 7.500000000E-01 5.669994652E-02 1.380211945E+02
 7.500000000E-01 5.683644116E-02 1.383610992E+02
 7.500000000E-01 5.697572231E-02 1.386271973E+02
 7.500000000E-01 5.711783469E-02 1.388175964E+02
 7.500000000E-01 5.726285279E-02 1.389302063E+02
 7.500000000E-01 5.741082132E-02 1.389627991E+02
 7.500000000E-01 5.756179988E-02 1.389134979E+02
 7.500000000E-01 5.771585554E-02 1.387799988E+02
 7.500000000E-01 5.787305534E-02 1.385599976E+02
 7.500000000E-01 5.803345144E-02 1.382512054E+02
 7.500000000E-01 5.819711089E-02 1.378509979E+02
 7.500000000E-01 5.836411566E-02 1.373569031E+02
 7.500000000E-01 5.853451788E-02 1.367660065E+02
 7.500000000E-01 5.870839208E-02 1.360753937E+02
 7.500000000E-01 5.888581276E-02 1.352816010E+02
 7.500000000E-01 5.906683952E-02 1.343813019E+02
 7.500000000E-01 5.925156176E-02 1.333703003E+02
 7.500000000E-01 5.944004655E-02 1.322442932E+02
 7.500000000E-01 5.963236094E-02 1.309978943E+02
 7.500000000E-01 5.982860923E-02 1.296253052E+02
 7.500000000E-01 6.002884358E-02 1.281194000E+02
 7.500000000E-01 6.023316085E-02 1.264716034E+02
 7.500000000E-01 6.044164300E-02 1.246715012E+02
 7.500000000E-01 6.065437198E-02 1.227060013E+02
 7.500000000E-01 6.087143719E-02 1.205587997E+02
 7.500000000E-01 6.109291315E-02 1.182089996E+02
 7.500000000E-01 6.131891161E-02 1.156296005E+02
 7.500000000E-01 6.154951453E-02 1.127855988E+02
 7.500000000E-01 6.178481132E-02 1.096314011E+02
 7.500000000E-01 6.202490628E-02 1.061078033E+02
 7.500000000E-01 6.226988137E-02 5.531423950E+01
 7.500000000E-01 6.251986325E-02 2.365279007E+01
 7.500000000E-01 6.277492642E-02 1.429533005E+01
 7.500000000E-01 6.303519011E-02 1.121586990E+01
 7.500000000E-01 6.330075860E-02 9.150851250E+00
 7.500000000E-01 6.357173622E-02 6.961594105E+00
 7.500000000E-01 6.384823471E-02 4.879573822E+00
 7.500000000E-01 6.413035840E-02 3.080631971E+00
 7.500000000E-01 6.441824138E-02 1.598885059E+00
 7.500000000E-01 6.471198052E-02 5.192610025E-01
 7.500000000E-01 6.501170993E-02 7.345285267E-02
 7.500000000E-01 6.531754136E-02 5.714300089E-03
 7.500000000E-01 6.562960893E-02 5.152006052E-04
 7.500000000E-01 6.594803184E-02 1.908317208E-04
 7.500000000E-01 6.627293676E-02 1.721784938E-04
 7.500000000E-01 6.660446525E-02 1.713640231E-04
 7.500000000E-01 6.694275141E-02 1.715767867E-04
 7.500000000E-01 6.728792191E-02 1.718781132E-04
 7.500000000E-01 6.764013320E-02 1.722180168E-04
 7.500000000E-01 6.799951196E-02 1.725944021E-04
 7.500000000E-01 6.836621463E-02 1.730075455E-04
 7.500000000E-01 6.874039024E-02 1.734576945E-04
 7.500000000E-01 6.912218779E-02 1.739449508E-04
 7.500000000E-01 6.951176375E-02 1.744692854E-04
 7.500000000E-01 6.990927458E-02 1.750305819E-04
 7.500000000E-01 7.031489164E-02 1.756285637E-04
 7.500000000E-01 7.072876394E-02 1.762629254E-04
 7.500000000E-01 7.115107030E-02 1.769332157E-04
 7.500000000E-01 7.158198208E-02 1.776390563E-04
 7.500000000E-01 7.202167064E-02 1.783799089E-04
 7.500000000E-01 7.247032225E-02 1.791553077E-04
 7.500000000E-01 7.292810827E-02 1.799647289E-04
 7.500000000E-01 7.339522243E-02 1.808076922E-04
 7.500000000E-01 7.387185097E-02 1.816837466E-04
 7.500000000E-01 7.435819507E-02 1.825924555E-04
 7.500000000E-01 7.485444099E-02 1.835334115E-04
 7.500000000E-01 7.536078990E-02 1.845063089E-04
 7.500000000E-01 7.587747276E-02 1.855108421E-04
 7.500000000E-01 7.640467584E-02 1.865467639E-04
 7.500000000E-01 7.694260776E-02 1.876139722E-04
 7.500000000E-01 7.749152184E-02 1.887123217E-04
 7.500000000E-01 7.805161178E-02 1.898418122E-04
 7.500000000E-01 7.862310112E-02 1.910024876E-04
 7.500000000E-01 7.920624316E-02 1.921944204E-04
 7.500000000E-01 7.980124652E-02 1.934177708E-04
 7.500000000E-01 8.040839434E-02 1.946727571E-04
 7.500000000E-01 8.102791011E-02 1.959595829E-04
 7.500000000E-01 8.166003227E-02 1.972785685E-04
 7.500000000E-01 8.230504394E-02 1.986300340E-04
 7.500000000E-01 8.296319842E-02 2.000143431E-04
 7.500000000E-01 8.363474905E-02 2.014318306E-04
 7.500000000E-01 8.431999385E-02 2.028829185E-04
 7.500000000E-01 8.501918614E-02 2.043679269E-04
 7.500000000E-01 8.573263884E-02 2.058871905E-04
 7.500000000E-01 8.646062016E-02 2.074409422E-04
 7.500000000E-01 8.720342815E-02 2.090292692E-04
 7.500000000E-01 8.796137571E-02 2.106519823E-04
 7.500000000E-01 8.873476088E-02 2.123085724E-04
 7.500000000E-01 8.952389657E-02 2.139975841E-04
 7.500000000E-01 9.032912552E-02 2.157142153E-04
 7.500000000E-01 9.115074575E-02 2.174294204E-04
 7.500000000E-01 9.198911488E-02 2.191590320E-04
 7.500000000E-01 9.284456074E-02 2.209357626E-04
 7.500000000E-01 9.371742606E-02 2.227619698E-04
 7.500000000E-01 9.460808337E-02 2.246392833E-04
 7.500000000E-01 9.551687539E-02 2.265693183E-04
 7.500000000E-01 9.644420445E-02 2.285537776E-04
 7.500000000E-01 9.739039838E-02 2.305944508E-04
 7.500000000E-01 9.835587442E-02 2.326931863E-04
 7.500000000E-01 9.934104979E-02 2.348518756E-04
 7.500000000E-01 1.003462970E-01 2.370725415E-04
 7.500000000E-01 1.013720036E-01 2.393572358E-04
 7.500000000E-01 1.024186015E-01 2.417081269E-04
 7.500000000E-01 1.034865007E-01 2.441274410E-04
 7.500000000E-01 1.045762002E-01 2.466175065E-04
 7.500000000E-01 1.056881025E-01 2.491807682E-04
 7.500000000E-01 1.068226025E-01 2.518197289E-04
 7.500000000E-01 1.079801992E-01 2.545370371E-04
 7.500000000E-01 1.091615036E-01 2.573353704E-04
 7.500000000E-01 1.103667021E-01 2.602176392E-04
 7.500000000E-01 1.115965992E-01 2.631867537E-04
 7.500000000E-01 1.128515005E-01 2.662457991E-04
 7.500000000E-01 1.141320020E-01 2.693979768E-04
 7.500000000E-01 1.154384986E-01 2.726466919E-04
 7.500000000E-01 1.167716980E-01 2.759953495E-04
 7.500000000E-01 1.181320995E-01 2.794476168E-04
 7.500000000E-01 1.195200980E-01 2.830072772E-04
 7.500000000E-01 1.209364012E-01 2.866782597E-04
 7.500000000E-01 1.223815978E-01 2.904646681E-04
 7.500000000E-01 1.238562986E-01 2.943708678E-04
 7.500000000E-01 1.253609061E-01 2.984012535E-04
 7.500000000E-01 1.268962026E-01 3.025605401E-04
 7.500000000E-01 1.284628958E-01 3.068535880E-04
 7.500000000E-01 1.300614029E-01 3.112855193E-04
 7.500000000E-01 1.316924989E-01 3.158616018E-04
 7.500000000E-01 1.333567947E-01 3.205874818E-04
 7.500000000E-01 1.350550056E-01 3.254688636E-04
 7.500000000E-01 1.367878020E-01 3.305118589E-04
 7.500000000E-01 1.385560036E-01 3.357228125E-04
 7.500000000E-01 1.403601021E-01 3.411083599E-04
 7.500000000E-01 1.422010064E-01 3.466753988E-04
 7.500000000E-01 1.440794021E-01 3.524312051E-04
 7.500000000E-01 1.459960938E-01 3.583833459E-04
 7.500000000E-01 1.479517967E-01 3.645397956E-04
 7.500000000E-01 1.499474049E-01 3.709088778E-04
 7.500000000E-01 1.519836038E-01 3.774992074E-04
 7.500000000E-01 1.540613025E-01 3.843199520E-04
 7.500000000E-01 1.561813951E-01 3.913806868E-04
 7.500000000E-01 1.583445966E-01 3.986913071E-04
 7.500000000E-01 1.605519056E-01 4.062623484E-04
 7.500000000E-01 1.628042012E-01 4.141047830E-04
 7.500000000E-01 1.651023030E-01 4.222301650E-04
 7.500000000E-01 1.674472988E-01 4.306504852E-04
 7.500000000E-01 1.698400974E-01 4.393784329E-04
 7.500000000E-01 1.722815931E-01 4.484272504E-04
 7.500000000E-01 1.747727990E-01 4.578109074E-04
 7.500000000E-01 1.773148030E-01 4.675440141E-04
 7.500000000E-01 1.799086034E-01 4.776419373E-04
 7.500000000E-01 1.825551987E-01 4.881207133E-04
 7.500000000E-01 1.852557957E-01 4.989973386E-04
 7.500000000E-01 1.880113035E-01 5.102895666E-04
 7.500000000E-01 1.908230036E-01 5.220160238E-04
 7.500000000E-01 1.936919987E-01 5.341963843E-04
 7.500000000E-01 1.966194063E-01 5.468512536E-04
 7.500000000E-01 1.996064931E-01 5.600022851E-04
 7.500000000E-01 2.026544064E-01 5.736723542E-04
 7.500000000E-01 2.057645023E-01 5.878852680E-04
 7.500000000E-01 2.089377940E-01 6.026664050E-04
 7.500000000E-01 2.121759057E-01 6.180421915E-04
 7.500000000E-01 2.154798955E-01 6.340405089E-04
 7.500000000E-01 2.188511938E-01 6.506908103E-04
 7.500000000E-01 2.222912014E-01 6.680240040E-04
 7.500000000E-01 2.258013040E-01 6.860725698E-04
 7.500000000E-01 2.293829024E-01 7.048709085E-04
 7.500000000E-01 2.330373973E-01 7.244550507E-04
 7.500000000E-01 2.367665023E-01 7.448630058E-04
 7.500000000E-01 2.405714989E-01 7.661348791E-04
 7.500000000E-01 2.444539964E-01 7.883129292E-04
 7.500000000E-01 2.484154999E-01 8.114415687E-04
 7.500000000E-01 2.524578869E-01 8.355677710E-04
 7.500000000E-01 2.565825880E-01 8.607410127E-04
 7.500000000E-01 2.607912123E-01 8.870133897E-04
 7.500000000E-01 2.650856972E-01 9.144397918E-04
 7.500000000E-01 2.694677114E-01 9.430784266E-04
 7.500000000E-01 2.739388049E-01 9.729902958E-04
 7.500000000E-01 2.785012126E-01 1.004240010E-03
 7.500000000E-01 2.831563950E-01 1.036895555E-03
 7.500000000E-01 2.879064977E-01 1.071028877E-03
 7.500000000E-01 2.927533090E-01 1.106715761E-03
 7.500000000E-01 2.976990044E-01 1.144036418E-03
 7.500000000E-01 3.027453125E-01 1.183075132E-03
 7.500000000E-01 3.078944981E-01 1.223921077E-03
 7.500000000E-01 3.131485879E-01 1.266668318E-03
 7.500000000E-01 3.185096979E-01 1.311416505E-03
 7.500000000E-01 3.239800036E-01 1.358270529E-03
 7.500000000E-01 3.295617998E-01 1.407340984E-03
 7.500000000E-01 3.352574110E-01 1.458745101E-03
 7.500000000E-01 3.410688937E-01 1.512606163E-03
 7.500000000E-01 3.469988108E-01 1.569055021E-03
 7.500000000E-01 3.530496061E-01 1.628229162E-03
 7.500000000E-01 3.592236042E-01 1.690274104E-03
 7.500000000E-01 3.655233979E-01 1.755343517E-03
 7.500000000E-01 3.719514906E-01 1.823599217E-03
 7.500000000E-01 3.785107136E-01 1.895212801E-03
 7.500000000E-01 3.852033913E-01 1.970364247E-03
 7.500000000E-01 3.920325041E-01 2.049244475E-03
 7.500000000E-01 3.990007043E-01 2.132053953E-03
 7.500000000E-01 4.061109126E-01 2.219003625E-03
 7.500000000E-01 4.133659005E-01 2.310316078E-03
 7.500000000E-01 4.207687974E-01 2.406224143E-03
 7.500000000E-01 4.283224046E-01 2.506970661E-03
 7.500000000E-01 4.360300004E-01 2.612808254E-03
 7.500000000E-01 4.438945949E-01 2.723991871E-03
 7.500000000E-01 4.519194067E-01 2.840762027E-03
 7.500000000E-01 4.601075947E-01 2.897096332E-03
 7.500000000E-01 4.684627950E-01 2.894893521E-03
 7.500000000E-01 4.769881070E-01 2.892841585E-03
 7.500000000E-01 4.856871068E-01 2.890932374E-03
 7.500000000E-01 4.945634007E-01 2.889157040E-03
 7.500000000E-01 5.036203861E-01 2.887507435E-03
 7.500000000E-01 5.128620267E-01 2.885975409E-03
 7.500000000E-01 5.222918987E-01 2.884553745E-03
 7.500000000E-01 5.319138765E-01 2.883235458E-03
 7.500000000E-01 5.417320132E-01 2.882014029E-03
 7.500000000E-01 5.517498851E-01 2.880882705E-03
 7.500000000E-01 5.619720817E-01 2.879836131E-03
 7.500000000E-01 5.724024773E-01 2.878868487E-03
 7.500000000E-01 5.830454230E-01 2.877973951E-03
 7.500000000E-01 5.939052105E-01 2.877148334E-03
 7.500000000E-01 6.049860716E-01 2.876386745E-03
 7.500000000E-01 6.162927747E-01 2.875684295E-03
 7.500000000E-01 6.278299093E-01 2.875037258E-03
 7.500000000E-01 6.396020055E-01 2.874441678E-03
 7.500000000E-01 6.516140103E-01 2.873893827E-03
 7.500000000E-01 6.638705730E-01 2.873389982E-03
 7.500000000E-01 6.763769984E-01 2.872927580E-03
 7.500000000E-01 6.891381741E-01 2.872503130E-03
 7.500000000E-01 7.021592855E-01 2.872114070E-03
 7.500000000E-01 7.154458165E-01 2.871757373E-03
 7.500000000E-01 7.290027738E-01 2.871430945E-03
 7.500000000E-01 7.428361773E-01 2.871132456E-03
 7.500000000E-01 7.569512725E-01 2.870859578E-03
 7.500000000E-01 7.713540196E-01 2.870610915E-03
 7.500000000E-01 7.860500813E-01 2.870383905E-03
 7.500000000E-01 8.010457158E-01 2.870176919E-03
 7.500000000E-01 8.163467050E-01 2.869988792E-03
 7.500000000E-01 8.319594264E-01 2.869817894E-03
 7.500000000E-01 8.478903174E-01 2.869662596E-03
 7.500000000E-01 8.641456962E-01 2.869521733E-03
 7.500000000E-01 8.807321787E-01 2.869394375E-03
 7.500000000E-01 8.976566792E-01 2.869279124E-03
 7.500000000E-01 9.149261117E-01 2.869174816E-03
 7.500000000E-01 9.325472116E-01 2.869081218E-03
 7.500000000E-01 9.505273104E-01 2.868996467E-03
 7.500000000E-01 9.688736796E-01 2.868920797E-03
 7.500000000E-01 9.875938296E-01 2.868852578E-03
 7.500000000E-01 1.006695986E+00 2.868791809E-03
 7.500000000E-01 1.026185989E+00 2.868737560E-03
 7.500000000E-01 1.046074033E+00 2.868689131E-03
 7.500000000E-01 1.066367030E+00 2.868646290E-03
 7.500000000E-01 1.087074041E+00 2.868608339E-03
 7.500000000E-01 1.108201981E+00 2.868574811E-03
 7.500000000E-01 1.129760981E+00 2.868545242E-03
 7.500000000E-01 1.151757956E+00 2.868519630E-03
 7.500000000E-01 1.174204946E+00 2.868497279E-03
 7.500000000E-01 1.197108030E+00 2.868478186E-03
 7.500000000E-01 1.220478058E+00 2.868461423E-03
 7.500000000E-01 1.244323969E+00 2.868447453E-03
 7.500000000E-01 1.268656015E+00 2.868435346E-03
 7.500000000E-01 1.293483973E+00 2.868425567E-03
 7.500000000E-01 1.318817019E+00 2.868417650E-03
 7.500000000E-01 1.344666958E+00 2.868411131E-03
 7.500000000E-01 1.371042967E+00 2.868406475E-03
 7.500000000E-01 1.397956014E+00 2.868402749E-03
 7.500000000E-01 1.425418019E+00 2.868400188E-03
 7.500000000E-01 1.453439951E+00 2.868398558E-03
 7.500000000E-01 1.482031941E+00 2.868398093E-03
 7.500000000E-01 1.511206985E+00 2.868398558E-03
 7.500000000E-01 1.540976048E+00 2.868399490E-03
 7.500000000E-01 1.571352005E+00 2.868400887E-03
 7.500000000E-01 1.602345943E+00 2.868402982E-03
 7.500000000E-01 1.633972049E+00 2.868405543E-03
 7.500000000E-01 1.666242003E+00 2.868408570E-03
 7.500000000E-01 1.699169993E+00 2.868412063E-03
 7.500000000E-01 1.732768059E+00 2.868415555E-03
 7.500000000E-01 1.767050982E+00 2.868419513E-03
 7.500000000E-01 1.802032948E+00 2.868423704E-03
 7.500000000E-01 1.837726951E+00 2.868427895E-03
 7.500000000E-01 1.874148011E+00 2.868432319E-03
 7.500000000E-01 1.911311030E+00 2.868436743E-03
 7.500000000E-01 1.949231982E+00 2.868441399E-03
 7.500000000E-01 1.987925053E+00 2.868446056E-03
 7.500000000E-01 2.027405977E+00 2.868450712E-03
 7.500000000E-01 2.067692041E+00 2.868455369E-03
 7.500000000E-01 2.108798027E+00 2.868460026E-03
 7.500000000E-01 2.150742054E+00 2.868464682E-03
 7.500000000E-01 2.193540096E+00 2.868469339E-03
 7.500000000E-01 2.237210989E+00 2.868473995E-03
 7.500000000E-01 2.281770945E+00 2.868478652E-03
 7.500000000E-01 2.327239037E+00 2.868482843E-03
 7.500000000E-01 2.373632908E+00 2.868487500E-03
 7.500000000E-01 2.420972109E+00 2.868491691E-03
 7.500000000E-01 2.469275951E+00 2.868495882E-03
 7.500000000E-01 2.518563986E+00 2.868500073E-03
 7.500000000E-01 2.568856001E+00 2.868504263E-03
 7.500000000E-01 2.620172024E+00 2.868507989E-03
 7.500000000E-01 2.672533989E+00 2.868511714E-03
 7.500000000E-01 2.725963116E+00 2.868515439E-03
 7.500000000E-01 2.780479908E+00 2.868519165E-03