VARIABLES = "X","Y","omega","k"
ZONE T="CFL3D"
 7.500000000E-01 5.000025034E-02 5.263348103E+00 3.949854332E-12
 7.500000000E-01 5.000074208E-02 9.813141823E-01 1.119211876E-10
 7.500000000E-01 5.000124127E-02 3.468061984E-01 7.491621767E-10
 7.500000000E-01 5.000174046E-02 1.683849990E-01 2.641230124E-09
 7.500000000E-01 5.000223219E-02 9.766429663E-02 6.688532395E-09
 7.500000000E-01 5.000273138E-02 6.325620413E-02 1.391573790E-08
 7.500000000E-01 5.000323057E-02 4.412375391E-02 2.545229449E-08
 7.500000000E-01 5.000372976E-02 3.244853020E-02 4.252417085E-08
 7.500000000E-01 5.000422895E-02 2.482175082E-02 6.645078798E-08
 7.500000000E-01 5.000473559E-02 1.957429573E-02 9.864492512E-08
 7.500000000E-01 5.000524223E-02 1.581371203E-02 1.406145458E-07
 7.500000000E-01 5.000574887E-02 1.302878559E-02 1.939660876E-07
 7.500000000E-01 5.000625551E-02 1.091002207E-02 2.604088252E-07
 7.500000000E-01 5.000676960E-02 9.261339903E-03 3.417600283E-07
 7.500000000E-01 5.000728369E-02 7.953709923E-03 4.399511226E-07
 7.500000000E-01 5.000780523E-02 6.899452768E-03 5.570340704E-07
 7.500000000E-01 5.000832677E-02 6.037322339E-03 6.951887030E-07
 7.500000000E-01 5.000884831E-02 5.323499441E-03 8.567303098E-07
 7.500000000E-01 5.000936985E-02 4.725971725E-03 1.044117425E-06
 7.500000000E-01 5.000990629E-02 4.220914096E-03 1.259960527E-06
 7.500000000E-01 5.001044273E-02 3.790302901E-03 1.507029765E-06
 7.500000000E-01 5.001097918E-02 3.420299385E-03 1.788264399E-06
 7.500000000E-01 5.001153052E-02 3.100137226E-03 2.106780357E-06
 7.500000000E-01 5.001208186E-02 2.821339294E-03 2.465879788E-06
 7.500000000E-01 5.001263320E-02 2.577157924E-03 2.869056971E-06
 7.500000000E-01 5.001319200E-02 2.362167463E-03 3.320007636E-06
 7.500000000E-01 5.001375079E-02 2.171965549E-03 3.822634881E-06
 7.500000000E-01 5.001432449E-02 2.002950525E-03 4.381053714E-06
 7.500000000E-01 5.001489818E-02 1.852151589E-03 4.999596058E-06
 7.500000000E-01 5.001547933E-02 1.717101433E-03 5.682812116E-06
 7.500000000E-01 5.001607537E-02 1.595736714E-03 6.435471732E-06
 7.500000000E-01 5.001667142E-02 1.486321096E-03 7.262558938E-06
 7.500000000E-01 5.001726747E-02 1.387384604E-03 8.169268767E-06
 7.500000000E-01 5.001787841E-02 1.297676004E-03 9.160996342E-06
 7.500000000E-01 5.001848936E-02 1.216124510E-03 1.024332232E-05
 7.500000000E-01 5.001911521E-02 1.141809626E-03 1.142199471E-05
 7.500000000E-01 5.001974851E-02 1.073935651E-03 1.270290613E-05
 7.500000000E-01 5.002038181E-02 1.011812594E-03 1.409205834E-05
 7.500000000E-01 5.002103746E-02 9.548384114E-04 1.559552766E-05
 7.500000000E-01 5.002169311E-02 9.024869069E-04 1.721942681E-05
 7.500000000E-01 5.002235621E-02 8.542954456E-04 1.896984031E-05
 7.500000000E-01 5.002303421E-02 8.098562248E-04 2.085277629E-05
 7.500000000E-01 5.002371222E-02 7.688083570E-04 2.287409370E-05
 7.500000000E-01 5.002440512E-02 7.308315253E-04 2.503943506E-05
 7.500000000E-01 5.002510548E-02 6.956404541E-04 2.735413182E-05
 7.500000000E-01 5.002582073E-02 6.629802519E-04 2.982313526E-05
 7.500000000E-01 5.002655089E-02 6.326223956E-04 3.245091648E-05
 7.500000000E-01 5.002728105E-02 6.043620524E-04 3.524136991E-05
 7.500000000E-01 5.002802610E-02 5.780144129E-04 3.819772974E-05
 7.500000000E-01 5.002878606E-02 5.534128868E-04 4.132246977E-05
 7.500000000E-01 5.002955347E-02 5.304068909E-04 4.461722710E-05
 7.500000000E-01 5.003033578E-02 5.088599864E-04 4.808269296E-05
 7.500000000E-01 5.003112555E-02 4.886485985E-04 5.171859812E-05
 7.500000000E-01 5.003193021E-02 4.696603282E-04 5.552359653E-05
 7.500000000E-01 5.003274977E-02 4.517933121E-04 5.949525803E-05
 7.500000000E-01 5.003358424E-02 4.349547089E-04 6.363005377E-05
 7.500000000E-01 5.003443360E-02 4.190602922E-04 6.792331988E-05
 7.500000000E-01 5.003529042E-02 4.040334024E-04 7.236931560E-05
 7.500000000E-01 5.003616214E-02 3.898042487E-04 7.696120883E-05
 7.500000000E-01 5.003705621E-02 3.763095010E-04 8.169119246E-05
 7.500000000E-01 5.003795028E-02 3.634915920E-04 8.655051352E-05
 7.500000000E-01 5.003887415E-02 3.512983094E-04 9.152961138E-05
 7.500000000E-01 5.003981292E-02 3.396821849E-04 9.661818331E-05
 7.500000000E-01 5.004076660E-02 3.286002611E-04 1.018053226E-04
 7.500000000E-01 5.004172772E-02 3.180135391E-04 1.070796279E-04
 7.500000000E-01 5.004271865E-02 3.078868613E-04 1.124293776E-04
 7.500000000E-01 5.004371703E-02 2.981881844E-04 1.178426464E-04
 7.500000000E-01 5.004473776E-02 2.888887539E-04 1.233073708E-04
 7.500000000E-01 5.004577339E-02 2.799623471E-04 1.288115454E-04
 7.500000000E-01 5.004683137E-02 2.713853901E-04 1.343433541E-04
 7.500000000E-01 5.004790425E-02 2.631364623E-04 1.398911845E-04
 7.500000000E-01 5.004900694E-02 2.551962389E-04 1.454437879E-04
 7.500000000E-01 5.005011708E-02 2.475470537E-04 1.509903814E-04
 7.500000000E-01 5.005125701E-02 2.401730453E-04 1.565206330E-04
 7.500000000E-01 5.005240440E-02 2.330596471E-04 1.620248222E-04
 7.500000000E-01 5.005358905E-02 2.261936315E-04 1.674937666E-04
 7.500000000E-01 5.005478859E-02 2.195629349E-04 1.729189826E-04
 7.500000000E-01 5.005601048E-02 2.131564688E-04 1.782925683E-04
 7.500000000E-01 5.005725473E-02 2.069640323E-04 1.836073352E-04
 7.500000000E-01 5.005852133E-02 2.009762684E-04 1.888566912E-04
 7.500000000E-01 5.005981028E-02 1.951845043E-04 1.940347429E-04
 7.500000000E-01 5.006112903E-02 1.895806490E-04 1.991362369E-04
 7.500000000E-01 5.006247014E-02 1.841572230E-04 2.041564730E-04
 7.500000000E-01 5.006383359E-02 1.789072267E-04 2.090914204E-04
 7.500000000E-01 5.006523430E-02 1.738240826E-04 2.139375429E-04
 7.500000000E-01 5.006664991E-02 1.689015771E-04 2.186918573E-04
 7.500000000E-01 5.006809533E-02 1.641339331E-04 2.233519044E-04
 7.500000000E-01 5.006957054E-02 1.595155773E-04 2.279156324E-04
 7.500000000E-01 5.007107556E-02 1.550412853E-04 2.323814697E-04
 7.500000000E-01 5.007259548E-02 1.507060806E-04 2.367482230E-04
 7.500000000E-01 5.007416010E-02 1.465051901E-04 2.410150482E-04
 7.500000000E-01 5.007575452E-02 1.424340589E-04 2.451814653E-04
 7.500000000E-01 5.007737875E-02 1.384883653E-04 2.492472704E-04
 7.500000000E-01 5.007902533E-02 1.346639037E-04 2.532125218E-04
 7.500000000E-01 5.008071661E-02 1.309566724E-04 2.570775105E-04
 7.500000000E-01 5.008243024E-02 1.273628150E-04 2.608428476E-04
 7.500000000E-01 5.008418113E-02 1.238786062E-04 2.645091736E-04
 7.500000000E-01 5.008596182E-02 1.205004664E-04 2.680773905E-04
 7.500000000E-01 5.008778721E-02 1.172249613E-04 2.715485753E-04
 7.500000000E-01 5.008964241E-02 1.140487366E-04 2.749238047E-04
 7.500000000E-01 5.009153485E-02 1.109685836E-04 2.782044467E-04
 7.500000000E-01 5.009346455E-02 1.079813883E-04 2.813917818E-04
 7.500000000E-01 5.009543896E-02 1.050841383E-04 2.844872652E-04
 7.500000000E-01 5.009743571E-02 1.022739525E-04 2.874924103E-04
 7.500000000E-01 5.009949207E-02 9.954797861E-05 2.904087596E-04
 7.500000000E-01 5.010157824E-02 9.690353909E-05 2.932378848E-04
 7.500000000E-01 5.010370165E-02 9.433799278E-05 2.959813864E-04
 7.500000000E-01 5.010586977E-02 9.184879309E-05 2.986409236E-04
 7.500000000E-01 5.010809004E-02 8.943348803E-05 3.012181551E-04
 7.500000000E-01 5.011034012E-02 8.708969108E-05 3.037146525E-04
 7.500000000E-01 5.011264980E-02 8.481511031E-05 3.061321040E-04
 7.500000000E-01 5.011498928E-02 8.260752656E-05 3.084721393E-04
 7.500000000E-01 5.011738837E-02 8.046476432E-05 3.107363591E-04
 7.500000000E-01 5.011983216E-02 7.838476449E-05 3.129263932E-04
 7.500000000E-01 5.012232065E-02 7.636550436E-05 3.150437842E-04
 7.500000000E-01 5.012486875E-02 7.440504851E-05 3.170900745E-04
 7.500000000E-01 5.012746155E-02 7.250149065E-05 3.190668067E-04
 7.500000000E-01 5.013009906E-02 7.065303362E-05 3.209754650E-04
 7.500000000E-01 5.013279617E-02 6.885790208E-05 3.228175046E-04
 7.500000000E-01 5.013555288E-02 6.711440801E-05 3.245943517E-04
 7.500000000E-01 5.013835430E-02 6.542089250E-05 3.263073741E-04
 7.500000000E-01 5.014121532E-02 6.377577665E-05 3.279579687E-04
 7.500000000E-01 5.014413595E-02 6.217751798E-05 3.295473871E-04
 7.500000000E-01 5.014711618E-02 6.062463217E-05 3.310769389E-04
 7.500000000E-01 5.015015602E-02 5.911567860E-05 3.325478174E-04
 7.500000000E-01 5.015325546E-02 5.764928210E-05 3.339612740E-04
 7.500000000E-01 5.015641451E-02 5.622408207E-05 3.353184438E-04
 7.500000000E-01 5.015963316E-02 5.483879795E-05 3.366203746E-04
 7.500000000E-01 5.016292632E-02 5.349216735E-05 3.378682304E-04
 7.500000000E-01 5.016627908E-02 5.218298611E-05 3.390630009E-04
 7.500000000E-01 5.016970634E-02 5.091007188E-05 3.402056755E-04
 7.500000000E-01 5.017320067E-02 4.967230780E-05 3.412972437E-04
 7.500000000E-01 5.017676204E-02 4.846859156E-05 3.423385788E-04
 7.500000000E-01 5.018039793E-02 4.729787179E-05 3.433305828E-04
 7.500000000E-01 5.018410832E-02 4.615912258E-05 3.442741290E-04
 7.500000000E-01 5.018789321E-02 4.505135803E-05 3.451699740E-04
 7.500000000E-01 5.019175261E-02 4.397362500E-05 3.460189328E-04
 7.500000000E-01 5.019569397E-02 4.292500307E-05 3.468217328E-04
 7.500000000E-01 5.019970238E-02 4.190459731E-05 3.475790145E-04
 7.500000000E-01 5.020380765E-02 4.091155279E-05 3.482915345E-04
 7.500000000E-01 5.020798743E-02 3.994502913E-05 3.489598748E-04
 7.500000000E-01 5.021224916E-02 3.900422598E-05 3.495846177E-04
 7.500000000E-01 5.021660775E-02 3.808835754E-05 3.501664032E-04
 7.500000000E-01 5.022104830E-02 3.719668166E-05 3.507056972E-04
 7.500000000E-01 5.022557825E-02 3.632846710E-05 3.512030235E-04
 7.500000000E-01 5.023020506E-02 3.548300447E-05 3.516588768E-04
 7.500000000E-01 5.023491383E-02 3.465962436E-05 3.520736936E-04
 7.500000000E-01 5.023972690E-02 3.385765740E-05 3.524478816E-04
 7.500000000E-01 5.024463683E-02 3.307647785E-05 3.527818189E-04
 7.500000000E-01 5.024965107E-02 3.231545998E-05 3.530759132E-04
 7.500000000E-01 5.025476217E-02 3.157401807E-05 3.533304553E-04
 7.500000000E-01 5.025997013E-02 3.085156641E-05 3.535457654E-04
 7.500000000E-01 5.026528984E-02 3.014755384E-05 3.537221637E-04
 7.500000000E-01 5.027072132E-02 2.946144014E-05 3.538598539E-04
 7.500000000E-01 5.027624965E-02 2.879270505E-05 3.539590980E-04
 7.500000000E-01 5.028190464E-02 2.814084291E-05 3.540200996E-04
 7.500000000E-01 5.028767139E-02 2.750536441E-05 3.540430625E-04
 7.500000000E-01 5.029354990E-02 2.688579116E-05 3.540281323E-04
 7.500000000E-01 5.029955506E-02 2.628165748E-05 3.539754543E-04
 7.500000000E-01 5.030567944E-02 2.569251046E-05 3.538851743E-04
 7.500000000E-01 5.031192303E-02 2.511790808E-05 3.537573502E-04
 7.500000000E-01 5.031830072E-02 2.455742288E-05 3.535920987E-04
 7.500000000E-01 5.032479763E-02 2.401064012E-05 3.533894778E-04
 7.500000000E-01 5.033143610E-02 2.347716327E-05 3.531495167E-04
 7.500000000E-01 5.033820868E-02 2.295660670E-05 3.528722445E-04
 7.500000000E-01 5.034511536E-02 2.244859206E-05 3.525576903E-04
 7.500000000E-01 5.035216361E-02 2.195276102E-05 3.522057959E-04
 7.500000000E-01 5.035935342E-02 2.146876432E-05 3.518165904E-04
 7.500000000E-01 5.036669225E-02 2.099625817E-05 3.513899865E-04
 7.500000000E-01 5.037418008E-02 2.053491698E-05 3.509259841E-04
 7.500000000E-01 5.038182437E-02 2.008442243E-05 3.504244378E-04
 7.500000000E-01 5.038961768E-02 1.964446710E-05 3.498853184E-04
 7.500000000E-01 5.039756745E-02 1.921474905E-05 3.493085387E-04
 7.500000000E-01 5.040568113E-02 1.879498450E-05 3.486939240E-04
 7.500000000E-01 5.041396618E-02 1.838488970E-05 3.480413579E-04
 7.500000000E-01 5.042241514E-02 1.798419180E-05 3.473507822E-04
 7.500000000E-01 5.043102801E-02 1.759262886E-05 3.466219932E-04
 7.500000000E-01 5.043982714E-02 1.720994806E-05 3.458548454E-04
 7.500000000E-01 5.044880509E-02 1.683590017E-05 3.450491931E-04
 7.500000000E-01 5.045795441E-02 1.647024328E-05 3.442048328E-04
 7.500000000E-01 5.046729743E-02 1.611275002E-05 3.433215898E-04
 7.500000000E-01 5.047683418E-02 1.576319119E-05 3.423992894E-04
 7.500000000E-01 5.048656464E-02 1.542134851E-05 3.414377570E-04
 7.500000000E-01 5.049648881E-02 1.508701098E-05 3.404367890E-04
 7.500000000E-01 5.050661415E-02 1.475997215E-05 3.393961815E-04
 7.500000000E-01 5.051694810E-02 1.444003465E-05 3.383157018E-04
 7.500000000E-01 5.052749068E-02 1.412700112E-05 3.371952043E-04
 7.500000000E-01 5.053824186E-02 1.382068876E-05 3.360344563E-04
 7.500000000E-01 5.054922402E-02 1.352091112E-05 3.348332248E-04
 7.500000000E-01 5.056042224E-02 1.322749358E-05 3.335913643E-04
 7.500000000E-01 5.057185143E-02 1.294026515E-05 3.323086130E-04
 7.500000000E-01 5.058351159E-02 1.265905939E-05 3.309848253E-04
 7.500000000E-01 5.059541017E-02 1.238371442E-05 3.296197974E-04
 7.500000000E-01 5.060754716E-02 1.211407471E-05 3.282133257E-04
 7.500000000E-01 5.061994493E-02 1.184998655E-05 3.267652355E-04
 7.500000000E-01 5.063258111E-02 1.159130443E-05 3.252753522E-04
 7.500000000E-01 5.064547062E-02 1.133788555E-05 3.237435594E-04
 7.500000000E-01 5.065863580E-02 1.108959077E-05 3.221696825E-04
 7.500000000E-01 5.067206174E-02 1.084628730E-05 3.205535759E-04
 7.500000000E-01 5.068576336E-02 1.060784325E-05 3.188951523E-04
 7.500000000E-01 5.069974065E-02 1.037413313E-05 3.171942662E-04
 7.500000000E-01 5.071400851E-02 1.014503414E-05 3.154509468E-04
 7.500000000E-01 5.072855949E-02 9.920428056E-06 3.136649902E-04
 7.500000000E-01 5.074341595E-02 9.700200280E-06 3.118364257E-04
 7.500000000E-01 5.075857043E-02 9.484239854E-06 3.099652822E-04
 7.500000000E-01 5.077403039E-02 9.272437637E-06 3.080515307E-04
 7.500000000E-01 5.078980327E-02 9.064690857E-06 3.060952295E-04
 7.500000000E-01 5.080591142E-02 8.860897651E-06 3.040964075E-04
 7.500000000E-01 5.082233250E-02 8.660962521E-06 3.020552394E-04
 7.500000000E-01 5.083909631E-02 8.464789062E-06 2.999718417E-04
 7.500000000E-01 5.085619539E-02 8.272287232E-06 2.978463890E-04
 7.500000000E-01 5.087364465E-02 8.083368812E-06 2.956790850E-04
 7.500000000E-01 5.089145154E-02 7.897948308E-06 2.934702206E-04
 7.500000000E-01 5.090962350E-02 7.715946595E-06 2.912201453E-04
 7.500000000E-01 5.092816055E-02 7.537281817E-06 2.889291500E-04
 7.500000000E-01 5.094707012E-02 7.361879398E-06 2.865976421E-04
 7.500000000E-01 5.096637458E-02 7.189667485E-06 2.842261165E-04
 7.500000000E-01 5.098606646E-02 7.020574230E-06 2.818150679E-04
 7.500000000E-01 5.100616813E-02 6.854533240E-06 2.793650783E-04
 7.500000000E-01 5.102667212E-02 6.691480394E-06 2.768767299E-04
 7.500000000E-01 5.104759336E-02 6.531353392E-06 2.743508085E-04
 7.500000000E-01 5.106893927E-02 6.374093573E-06 2.717879834E-04
 7.500000000E-01 5.109071732E-02 6.219645002E-06 2.691891277E-04
 7.500000000E-01 5.111294985E-02 6.067953109E-06 2.665551146E-04
 7.500000000E-01 5.113562942E-02 5.918967872E-06 2.638869337E-04
 7.500000000E-01 5.115877092E-02 5.772640179E-06 2.611855743E-04
 7.500000000E-01 5.118238181E-02 5.628924555E-06 2.584521717E-04
 7.500000000E-01 5.120646954E-02 5.487776434E-06 2.556879190E-04
 7.500000000E-01 5.123105645E-02 5.349155799E-06 2.528940677E-04
 7.500000000E-01 5.125615001E-02 5.213024451E-06 2.500719856E-04
 7.500000000E-01 5.128173530E-02 5.079345101E-06 2.472230699E-04
 7.500000000E-01 5.130785704E-02 4.948084097E-06 2.443488629E-04
 7.500000000E-01 5.133450776E-02 4.819210062E-06 2.414508781E-04
 7.500000000E-01 5.136169493E-02 4.692692983E-06 2.385308326E-04
 7.500000000E-01 5.138944089E-02 4.568506029E-06 2.355904435E-04
 7.500000000E-01 5.141775310E-02 4.446623734E-06 2.326315152E-04
 7.500000000E-01 5.144664645E-02 4.327022452E-06 2.296559542E-04
 7.500000000E-01 5.147612095E-02 4.209680810E-06 2.266657393E-04
 7.500000000E-01 5.150619894E-02 4.094579253E-06 2.236628934E-04
 7.500000000E-01 5.153688788E-02 3.981699592E-06 2.206495265E-04
 7.500000000E-01 5.156820267E-02 3.871025910E-06 2.176278067E-04
 7.500000000E-01 5.160015821E-02 3.762543201E-06 2.145999752E-04
 7.500000000E-01 5.163276196E-02 3.656237823E-06 2.115682873E-04
 7.500000000E-01 5.166602880E-02 3.552097496E-06 2.085350861E-04
 7.500000000E-01 5.169997364E-02 3.450111308E-06 2.055027871E-04
 7.500000000E-01 5.173461139E-02 3.350269253E-06 2.024737478E-04
 7.500000000E-01 5.176995695E-02 3.252561328E-06 1.994504128E-04
 7.500000000E-01 5.180601776E-02 3.156979801E-06 1.964352705E-04
 7.500000000E-01 5.184280872E-02 3.063516033E-06 1.934307802E-04
 7.500000000E-01 5.188035965E-02 2.972162065E-06 1.904393866E-04
 7.500000000E-01 5.191867054E-02 2.882910849E-06 1.874635636E-04
 7.500000000E-01 5.195776373E-02 2.795754199E-06 1.845057704E-04
 7.500000000E-01 5.199765414E-02 2.710684839E-06 1.815683790E-04
 7.500000000E-01 5.203835666E-02 2.627694585E-06 1.786538196E-04
 7.500000000E-01 5.207988620E-02 2.546774795E-06 1.757643477E-04
 7.500000000E-01 5.212226510E-02 2.467916147E-06 1.729022770E-04
 7.500000000E-01 5.216550082E-02 2.391108865E-06 1.700697176E-04
 7.500000000E-01 5.220961571E-02 2.316341352E-06 1.672688231E-04
 7.500000000E-01 5.225463957E-02 2.243601784E-06 1.645015727E-04
 7.500000000E-01 5.230057240E-02 2.172876520E-06 1.617698290E-04
 7.500000000E-01 5.234745145E-02 2.104150781E-06 1.590753673E-04
 7.500000000E-01 5.239526927E-02 2.037407739E-06 1.564198465E-04
 7.500000000E-01 5.244407058E-02 1.972629889E-06 1.538047218E-04
 7.500000000E-01 5.249387026E-02 1.909797220E-06 1.512313902E-04
 7.500000000E-01 5.254468322E-02 1.848888019E-06 1.487009868E-04
 7.500000000E-01 5.259652436E-02 1.789878979E-06 1.462146029E-04
 7.500000000E-01 5.264942348E-02 1.732744863E-06 1.437730680E-04
 7.500000000E-01 5.270341039E-02 1.677458499E-06 1.413770660E-04
 7.500000000E-01 5.275848508E-02 1.623990784E-06 1.390271354E-04
 7.500000000E-01 5.281468481E-02 1.572311021E-06 1.367235382E-04
 7.500000000E-01 5.287203193E-02 1.522386128E-06 1.344665070E-04
 7.500000000E-01 5.293054879E-02 1.474182000E-06 1.322559547E-04
 7.500000000E-01 5.299025029E-02 1.427662255E-06 1.300916483E-04
 7.500000000E-01 5.305117369E-02 1.382789151E-06 1.279732387E-04
 7.500000000E-01 5.311334133E-02 1.339523351E-06 1.259001147E-04
 7.500000000E-01 5.317676812E-02 1.297824042E-06 1.238715195E-04
 7.500000000E-01 5.324149132E-02 1.257649387E-06 1.218865727E-04
 7.500000000E-01 5.330753326E-02 1.218956186E-06 1.199441322E-04
 7.500000000E-01 5.337491632E-02 1.181700213E-06 1.180429826E-04
 7.500000000E-01 5.344367027E-02 1.145836450E-06 1.161817272E-04
 7.500000000E-01 5.351383239E-02 1.111319079E-06 1.143588233E-04
 7.500000000E-01 5.358542502E-02 1.078101718E-06 1.125725830E-04
 7.500000000E-01 5.365847051E-02 1.046137413E-06 1.108211873E-04
 7.500000000E-01 5.373300612E-02 1.015379098E-06 1.091027370E-04
 7.500000000E-01 5.380906165E-02 9.857792520E-07 1.074151514E-04
 7.500000000E-01 5.388666689E-02 9.572903537E-07 1.057563131E-04
 7.500000000E-01 5.396585166E-02 9.298648820E-07 1.041239302E-04
 7.500000000E-01 5.404664576E-02 9.034557706E-07 1.025157108E-04
 7.500000000E-01 5.412909389E-02 8.780157827E-07 1.009292173E-04
 7.500000000E-01 5.421321094E-02 8.534982499E-07 9.936197603E-05
 7.500000000E-01 5.429904908E-02 8.298569583E-07 9.781142580E-05
 7.500000000E-01 5.438663065E-02 8.070460353E-07 9.627497639E-05
 7.500000000E-01 5.447600782E-02 7.850204611E-07 9.474995022E-05
 7.500000000E-01 5.456719548E-02 7.637356703E-07 9.323367703E-05
 7.500000000E-01 5.466024578E-02 7.431478366E-07 9.172342834E-05
 7.500000000E-01 5.475518852E-02 7.232139296E-07 9.021647566E-05
 7.500000000E-01 5.485206842E-02 7.038916010E-07 8.871006139E-05
 7.500000000E-01 5.495092273E-02 6.851395256E-07 8.720141341E-05
 7.500000000E-01 5.505178869E-02 6.669172308E-07 8.568779594E-05
 7.500000000E-01 5.515471101E-02 6.491849831E-07 8.416648052E-05
 7.500000000E-01 5.525971949E-02 6.319040722E-07 8.263475320E-05
 7.500000000E-01 5.536688119E-02 6.150369245E-07 8.108995826E-05
 7.500000000E-01 5.547621846E-02 5.985466487E-07 7.952947635E-05
 7.500000000E-01 5.558779091E-02 5.823977176E-07 7.795076817E-05
 7.500000000E-01 5.570162833E-02 5.665555136E-07 7.635136717E-05
 7.500000000E-01 5.581779033E-02 5.509865559E-07 7.472891593E-05
 7.500000000E-01 5.593632162E-02 5.356586144E-07 7.308117347E-05
 7.500000000E-01 5.605725944E-02 5.205407092E-07 7.140602975E-05
 7.500000000E-01 5.618066341E-02 5.056031114E-07 6.970155664E-05
 7.500000000E-01 5.630658567E-02 4.908175697E-07 6.796597881E-05
 7.500000000E-01 5.643506348E-02 4.761571972E-07 6.619776104E-05
 7.500000000E-01 5.656617135E-02 4.615968692E-07 6.439560821E-05
 7.500000000E-01 5.669994652E-02 4.471131660E-07 6.255848712E-05
 7.500000000E-01 5.683644116E-02 4.326844589E-07 6.068568473E-05
 7.500000000E-01 5.697572231E-02 4.182912789E-07 5.877682270E-05
 7.500000000E-01 5.711783469E-02 4.039163173E-07 5.683190830E-05
 7.500000000E-01 5.726285279E-02 3.895447094E-07 5.485138536E-05
 7.500000000E-01 5.741082132E-02 3.751641202E-07 5.283613791E-05
 7.500000000E-01 5.756179988E-02 3.607652843E-07 5.078757385E-05
 7.500000000E-01 5.771585554E-02 3.463418352E-07 4.870763587E-05
 7.500000000E-01 5.787305534E-02 3.318908739E-07 4.659886690E-05
 7.500000000E-01 5.803345144E-02 3.174131393E-07 4.446442836E-05
 7.500000000E-01 5.819711089E-02 3.029131790E-07 4.230813647E-05
 7.500000000E-01 5.836411566E-02 2.883998036E-07 4.013449507E-05
 7.500000000E-01 5.853451788E-02 2.738860303E-07 3.794871373E-05
 7.500000000E-01 5.870839208E-02 2.593895658E-07 3.575670780E-05
 7.500000000E-01 5.888581276E-02 2.449327781E-07 3.356509842E-05
 7.500000000E-01 5.906683952E-02 2.305428950E-07 3.138117609E-05
 7.500000000E-01 5.925156176E-02 2.162518626E-07 2.921287887E-05
 7.500000000E-01 5.944004655E-02 2.020964729E-07 2.706869964E-05
 7.500000000E-01 5.963236094E-02 1.881179230E-07 2.495761873E-05
 7.500000000E-01 5.982860923E-02 1.743615883E-07 2.288896758E-05
 7.500000000E-01 6.002884358E-02 1.608764677E-07 2.087229041E-05
 7.500000000E-01 6.023316085E-02 1.477144735E-07 1.891717329E-05
 7.500000000E-01 6.044164300E-02 1.349295786E-07 1.703304588E-05
 7.500000000E-01 6.065437198E-02 1.225767789E-07 1.522896491E-05
 7.500000000E-01 6.087143719E-02 1.107108929E-07 1.351339688E-05
 7.500000000E-01 6.109291315E-02 9.938521828E-08 1.189397699E-05
 7.500000000E-01 6.131891161E-02 8.865025336E-08 1.037729271E-05
 7.500000000E-01 6.154951453E-02 7.855214079E-08 8.968676411E-06
 7.500000000E-01 6.178481132E-02 6.913138861E-08 7.672028005E-06
 7.500000000E-01 6.202490628E-02 6.042161260E-08 6.489698080E-06
 7.500000000E-01 6.226988137E-02 5.243906642E-08 5.420857633E-06
 7.500000000E-01 6.251986325E-02 4.516910934E-08 4.459749562E-06
 7.500000000E-01 6.277492642E-02 3.857035580E-08 3.597344858E-06
 7.500000000E-01 6.303519011E-02 3.261721915E-08 2.828430297E-06
 7.500000000E-01 6.330075860E-02 2.731382764E-08 2.152755997E-06
 7.500000000E-01 6.357173622E-02 2.266200383E-08 1.569349706E-06
 7.500000000E-01 6.384823471E-02 1.865010368E-08 1.074955662E-06
 7.500000000E-01 6.413035840E-02 1.526096050E-08 6.653236824E-07
 7.500000000E-01 6.441824138E-02 1.249318426E-08 3.378289080E-07
 7.500000000E-01 6.471198052E-02 1.050983656E-08 1.066495372E-07
 7.500000000E-01 6.501170993E-02 9.724027805E-09 1.464070465E-08
 7.500000000E-01 6.531754136E-02 9.596030637E-09 1.117072990E-09
 7.500000000E-01 6.562960893E-02 9.572486803E-09 9.988586347E-11
 7.500000000E-01 6.594803184E-02 9.557464153E-09 3.682494240E-11
 7.500000000E-01 6.627293676E-02 9.543263957E-09 3.307447372E-11
 7.500000000E-01 6.660446525E-02 9.529388834E-09 3.276499211E-11
 7.500000000E-01 6.694275141E-02 9.515813026E-09 3.265031301E-11
 7.500000000E-01 6.728792191E-02 9.502533871E-09 3.254989334E-11
 7.500000000E-01 6.764013320E-02 9.489548702E-09 3.245403946E-11
 7.500000000E-01 6.799951196E-02 9.476848639E-09 3.236223789E-11
 7.500000000E-01 6.836621463E-02 9.464425688E-09 3.227441231E-11
 7.500000000E-01 6.874039024E-02 9.452268301E-09 3.219047945E-11
 7.500000000E-01 6.912218779E-02 9.440361382E-09 3.211032135E-11
 7.500000000E-01 6.951176375E-02 9.428692493E-09 3.203380616E-11
 7.500000000E-01 6.990927458E-02 9.417241209E-09 3.196076737E-11
 7.500000000E-01 7.031489164E-02 9.405992429E-09 3.189102107E-11
 7.500000000E-01 7.072876394E-02 9.394927503E-09 3.182436953E-11
 7.500000000E-01 7.115107030E-02 9.384025113E-09 3.176060109E-11
 7.500000000E-01 7.158198208E-02 9.373268384E-09 3.169949025E-11
 7.500000000E-01 7.202167064E-02 9.362636888E-09 3.164081497E-11
 7.500000000E-01 7.247032225E-02 9.352112862E-09 3.158434278E-11
 7.500000000E-01 7.292810827E-02 9.341676765E-09 3.152984818E-11
 7.500000000E-01 7.339522243E-02 9.331310835E-09 3.147710217E-11
 7.500000000E-01 7.387185097E-02 9.320999972E-09 3.142588273E-11
 7.500000000E-01 7.435819507E-02 9.310726412E-09 3.137598514E-11
 7.500000000E-01 7.485444099E-02 9.300475057E-09 3.132718737E-11
 7.500000000E-01 7.536078990E-02 9.290232583E-09 3.127930553E-11
 7.500000000E-01 7.587747276E-02 9.279986557E-09 3.123214187E-11
 7.500000000E-01 7.640467584E-02 9.269722767E-09 3.118552291E-11
 7.500000000E-01 7.694260776E-02 9.259434108E-09 3.113928559E-11
 7.500000000E-01 7.749152184E-02 9.249108146E-09 3.109327379E-11
 7.500000000E-01 7.805161178E-02 9.238736887E-09 3.104734525E-11
 7.500000000E-01 7.862310112E-02 9.228313225E-09 3.100136120E-11
 7.500000000E-01 7.920624316E-02 9.217830055E-09 3.095520021E-11
 7.500000000E-01 7.980124652E-02 9.207282048E-09 3.090874778E-11
 7.500000000E-01 8.040839434E-02 9.196662987E-09 3.086188596E-11
 7.500000000E-01 8.102791011E-02 9.185969319E-09 3.081451760E-11
 7.500000000E-01 8.166003227E-02 9.175199267E-09 3.076654209E-11
 7.500000000E-01 8.230504394E-02 9.164346615E-09 3.071786575E-11
 7.500000000E-01 8.296319842E-02 9.153412250E-09 3.066839838E-11
 7.500000000E-01 8.363474905E-02 9.142391733E-09 3.061804976E-11
 7.500000000E-01 8.431999385E-02 9.131285950E-09 3.056672970E-11
 7.500000000E-01 8.501918614E-02 9.120092237E-09 3.051434452E-11
 7.500000000E-01 8.573263884E-02 9.108811483E-09 3.046078667E-11
 7.500000000E-01 8.646062016E-02 9.097442799E-09 3.040594859E-11
 7.500000000E-01 8.720342815E-02 9.085987074E-09 3.034969151E-11
 7.500000000E-01 8.796137571E-02 9.074443419E-09 3.029184542E-11
 7.500000000E-01 8.873476088E-02 9.062812723E-09 3.023217787E-11
 7.500000000E-01 8.952389657E-02 9.051097649E-09 3.017035233E-11
 7.500000000E-01 9.032912552E-02 9.039295534E-09 3.010556388E-11
 7.500000000E-01 9.115074575E-02 9.027411707E-09 3.003368387E-11
 7.500000000E-01 9.198911488E-02 9.015444391E-09 2.995689113E-11
 7.500000000E-01 9.284456074E-02 9.003396251E-09 2.987957104E-11
 7.500000000E-01 9.371742606E-02 8.991269063E-09 2.980184155E-11
 7.500000000E-01 9.460808337E-02 8.979063715E-09 2.972372001E-11
 7.500000000E-01 9.551687539E-02 8.966782872E-09 2.964521684E-11
 7.500000000E-01 9.644420445E-02 8.954428310E-09 2.956634937E-11
 7.500000000E-01 9.739039838E-02 8.942000918E-09 2.948712802E-11
 7.500000000E-01 9.835587442E-02 8.929504247E-09 2.940757360E-11
 7.500000000E-01 9.934104979E-02 8.916940075E-09 2.932768958E-11
 7.500000000E-01 1.003462970E-01 8.904310178E-09 2.924750026E-11
 7.500000000E-01 1.013720036E-01 8.891618108E-09 2.916702296E-11
 7.500000000E-01 1.024186015E-01 8.878863866E-09 2.908626465E-11
 7.500000000E-01 1.034865007E-01 8.866052781E-09 2.900525306E-11
 7.500000000E-01 1.045762002E-01 8.853184852E-09 2.892400208E-11
 7.500000000E-01 1.056881025E-01 8.840265409E-09 2.884252732E-11
 7.500000000E-01 1.068226025E-01 8.827294451E-09 2.876084960E-11
 7.500000000E-01 1.079801992E-01 8.814277308E-09 2.867898627E-11
 7.500000000E-01 1.091615036E-01 8.801213980E-09 2.859695640E-11
 7.500000000E-01 1.103667021E-01 8.788109795E-09 2.851477908E-11
 7.500000000E-01 1.115965992E-01 8.774966531E-09 2.843247512E-11
 7.500000000E-01 1.128515005E-01 8.761786852E-09 2.835006188E-11
 7.500000000E-01 1.141320020E-01 8.748575198E-09 2.826756190E-11
 7.500000000E-01 1.154384986E-01 8.735332457E-09 2.818499253E-11
 7.500000000E-01 1.167716980E-01 8.722063960E-09 2.810237806E-11
 7.500000000E-01 1.181320995E-01 8.708772370E-09 2.801973584E-11
 7.500000000E-01 1.195200980E-01 8.695460352E-09 2.793709014E-11
 7.500000000E-01 1.209364012E-01 8.682132346E-09 2.785445659E-11
 7.500000000E-01 1.223815978E-01 8.668790130E-09 2.777186120E-11
 7.500000000E-01 1.238562986E-01 8.655437256E-09 2.768932306E-11
 7.500000000E-01 1.253609061E-01 8.642079052E-09 2.760686124E-11
 7.500000000E-01 1.268962026E-01 8.628717296E-09 2.752450351E-11
 7.500000000E-01 1.284628958E-01 8.615355540E-09 2.744226547E-11
 7.500000000E-01 1.300614029E-01 8.601997337E-09 2.736017142E-11
 7.500000000E-01 1.316924989E-01 8.588646239E-09 2.727824043E-11
 7.500000000E-01 1.333567947E-01 8.575307575E-09 2.719649679E-11
 7.500000000E-01 1.350550056E-01 8.561981346E-09 2.711495958E-11
 7.500000000E-01 1.367878020E-01 8.548674657E-09 2.703365309E-11
 7.500000000E-01 1.385560036E-01 8.535388396E-09 2.695259640E-11
 7.500000000E-01 1.403601021E-01 8.522127892E-09 2.687181033E-11
 7.500000000E-01 1.422010064E-01 8.508896698E-09 2.679131916E-11
 7.500000000E-01 1.440794021E-01 8.495696591E-09 2.671114198E-11
 7.500000000E-01 1.459960938E-01 8.482532898E-09 2.663129786E-11
 7.500000000E-01 1.479517967E-01 8.469408286E-09 2.655180936E-11
 7.500000000E-01 1.499474049E-01 8.456328082E-09 2.647269903E-11
 7.500000000E-01 1.519836038E-01 8.443294064E-09 2.639398422E-11
 7.500000000E-01 1.540613025E-01 8.430309784E-09 2.631568574E-11
 7.500000000E-01 1.561813951E-01 8.417378794E-09 2.623782441E-11
 7.500000000E-01 1.583445966E-01 8.404506424E-09 2.616041758E-11
 7.500000000E-01 1.605519056E-01 8.391694450E-09 2.608348607E-11
 7.500000000E-01 1.628042012E-01 8.378945537E-09 2.600704721E-11
 7.500000000E-01 1.651023030E-01 8.366264126E-09 2.593112183E-11
 7.500000000E-01 1.674472988E-01 8.353654657E-09 2.585572902E-11
 7.500000000E-01 1.698400974E-01 8.341118019E-09 2.578088437E-11
 7.500000000E-01 1.722815931E-01 8.328660428E-09 2.570660351E-11
 7.500000000E-01 1.747727990E-01 8.316281885E-09 2.563290899E-11
 7.500000000E-01 1.773148030E-01 8.303987720E-09 2.555981121E-11
 7.500000000E-01 1.799086034E-01 8.291779707E-09 2.548733100E-11