VARIABLES = "y","u'u'","v'v'","w'w'"
ZONE T="SA, X=0.97008"
 0.000000000E+00 0.000000000E+00 0.000000000E+00 0.000000000E+00
 4.999999987E-07 1.595517989E-11 1.595515560E-11 1.595517815E-11
 1.000465204E-06 2.557573875E-10 2.557570822E-10 2.557573597E-10
 1.501861107E-06 1.298783081E-09 1.298783414E-09 1.298782748E-09
 2.004654107E-06 4.122601371E-09 4.122596931E-09 4.122600039E-09
 2.509312253E-06 1.012105511E-08 1.012105155E-08 1.012105155E-08
 3.016304618E-06 2.112995645E-08 2.112993336E-08 2.112994757E-08
 3.526103228E-06 3.946070493E-08 3.946067650E-08 3.946068716E-08
 4.039182386E-06 6.794243745E-08 6.794235219E-08 6.794239482E-08
 4.556018666E-06 1.099730795E-07 1.099729516E-07 1.099730085E-07
 5.077094102E-06 1.695804031E-07 1.695801615E-07 1.695802894E-07
 5.602892543E-06 2.514934465E-07 2.514930770E-07 2.514932476E-07
 6.133903298E-06 3.612257160E-07 3.612250907E-07 3.612254034E-07
 6.670620678E-06 5.051711582E-07 5.051702487E-07 5.051707035E-07
 7.213543540E-06 6.907141028E-07 6.907127386E-07 6.907134207E-07
 7.763177564E-06 9.263544598E-07 9.263525271E-07 9.263534935E-07
 8.320033885E-06 1.221850312E-06 1.221847583E-06 1.221848947E-06
 8.884630006E-06 1.588379405E-06 1.588375540E-06 1.588377472E-06
 9.457491615E-06 2.038720595E-06 2.038715365E-06 2.038717867E-06
 1.003915168E-05 2.587458084E-06 2.587451036E-06 2.587454446E-06
 1.063015134E-05 3.251212547E-06 3.251203225E-06 3.251207772E-06
 1.123103993E-05 4.048895789E-06 4.048883511E-06 4.048889878E-06
 1.184237772E-05 5.001998943E-06 5.001983027E-06 5.001991212E-06
 1.246473221E-05 6.134909654E-06 6.134888736E-06 6.134899195E-06
 1.309868276E-05 7.475263374E-06 7.475236544E-06 7.475249731E-06
 1.374481872E-05 9.054333532E-06 9.054299881E-06 9.054317161E-06
 1.440374217E-05 1.090746082E-05 1.090741898E-05 1.090743990E-05
 1.507606521E-05 1.307451566E-05 1.307446200E-05 1.307448929E-05
 1.576241448E-05 1.560040437E-05 1.560033706E-05 1.560037163E-05
 1.646342571E-05 1.853562208E-05 1.853553840E-05 1.853558024E-05
 1.717975465E-05 2.193682667E-05 2.193672481E-05 2.193677574E-05
 1.791206523E-05 2.586747541E-05 2.586734990E-05 2.586741175E-05
 1.866104139E-05 3.039844705E-05 3.039829244E-05 3.039837065E-05
 1.942737617E-05 3.560874029E-05 3.560855112E-05 3.560864570E-05
 2.021178625E-05 4.158610682E-05 4.158588126E-05 4.158599404E-05
 2.101499740E-05 4.842776616E-05 4.842748967E-05 4.842762792E-05
 2.183776087E-05 5.624097321E-05 5.624063851E-05 5.624080586E-05
 2.268083881E-05 6.514363486E-05 6.514322740E-05 6.514343113E-05
 2.354501703E-05 7.526473200E-05 7.526425179E-05 7.526449190E-05
 2.443110134E-05 8.674466517E-05 8.674408309E-05 8.674437413E-05
 2.533991210E-05 9.973529086E-05 9.973459964E-05 9.973494889E-05
 2.627229696E-05 1.143998816E-04 1.143990521E-04 1.143994668E-04
 2.722912359E-05 1.309124491E-04 1.309114741E-04 1.309119689E-04
 2.821128328E-05 1.494569296E-04 1.494557655E-04 1.494563476E-04
 2.921968553E-05 1.702256268E-04 1.702242444E-04 1.702249428E-04
 3.025527258E-05 1.934171305E-04 1.934155007E-04 1.934163156E-04
 3.131900667E-05 2.192334796E-04 2.192315587E-04 2.192325192E-04
 3.241187733E-05 2.478766255E-04 2.478743845E-04 2.478755196E-04
 3.353489956E-05 2.795438922E-04 2.795412438E-04 2.795425826E-04
 3.468912109E-05 3.144227085E-04 3.144196235E-04 3.144211660E-04
 3.587561514E-05 3.526842338E-04 3.526806249E-04 3.526824294E-04
 3.709548400E-05 3.944766941E-04 3.944725031E-04 3.944745986E-04
 3.834985910E-05 4.399175523E-04 4.399126628E-04 4.399151076E-04
 3.963991549E-05 4.890857381E-04 4.890800337E-04 4.890828859E-04
 4.096685007E-05 5.420137313E-04 5.420071539E-04 5.420104717E-04
 4.233189611E-05 5.986803444E-04 5.986727774E-04 5.986765609E-04
 4.373632328E-05 6.590037956E-04 6.589951226E-04 6.589994882E-04
 4.518143760E-05 7.228371687E-04 7.228272152E-04 7.228322211E-04
 4.666858513E-05 7.899653865E-04 7.899539778E-04 7.899597404E-04
 4.819914830E-05 8.601047448E-04 8.600917063E-04 8.600982837E-04
 4.977455319E-05 9.329055320E-04 9.328906890E-04 9.328981396E-04
 5.139626228E-05 1.007957384E-03 1.007940620E-03 1.007949002E-03
 5.306578896E-05 1.084798365E-03 1.084779389E-03 1.084788935E-03
 5.478467938E-05 1.162925386E-03 1.162903965E-03 1.162914676E-03
 5.655453788E-05 1.241808175E-03 1.241783961E-03 1.241796068E-03
 5.837701246E-05 1.320904121E-03 1.320876996E-03 1.320890617E-03
 6.025379116E-05 1.399673405E-03 1.399643137E-03 1.399658271E-03
 6.218662747E-05 1.477594138E-03 1.477560261E-03 1.477577258E-03
 6.417731493E-05 1.554175629E-03 1.554137911E-03 1.554156770E-03
 6.622770888E-05 1.628970960E-03 1.628929051E-03 1.628950005E-03
 6.833971565E-05 1.701585599E-03 1.701539150E-03 1.701562433E-03
 7.051529974E-05 1.771683921E-03 1.771632466E-03 1.771658193E-03
 7.275648386E-05 1.838992583E-03 1.838935888E-03 1.838964294E-03
 7.506535621E-05 1.903302153E-03 1.903239754E-03 1.903270953E-03
 7.744405593E-05 1.964463852E-03 1.964395400E-03 1.964429626E-03
 7.989480946E-05 2.022387460E-03 2.022312488E-03 2.022349974E-03
 8.241988689E-05 2.077035373E-03 2.076953417E-03 2.076994395E-03
 8.502163837E-05 2.128416207E-03 2.128326800E-03 2.128371503E-03
 8.770249406E-05 2.176578389E-03 2.176481066E-03 2.176529728E-03
 9.046493506E-05 2.221603878E-03 2.221498173E-03 2.221551025E-03
 9.331152978E-05 2.263600472E-03 2.263485920E-03 2.263543196E-03
 9.624494123E-05 2.302695764E-03 2.302572131E-03 2.302634064E-03
 9.926789062E-05 2.339032479E-03 2.338899067E-03 2.338965889E-03
 1.023831865E-04 2.372761955E-03 2.372618066E-03 2.372690011E-03
 1.055937319E-04 2.404040191E-03 2.403885592E-03 2.403962892E-03
 1.089025172E-04 2.433026209E-03 2.432860434E-03 2.432943322E-03
 1.123126131E-04 2.459876239E-03 2.459698590E-03 2.459787531E-03
 1.158271916E-04 2.484743716E-03 2.484553959E-03 2.484648954E-03
 1.194495271E-04 2.507776255E-03 2.507573925E-03 2.507675206E-03
 1.231829810E-04 2.529115183E-03 2.528899582E-03 2.529007616E-03
 1.270310458E-04 2.548893914E-03 2.548664808E-03 2.548779594E-03
 1.309972722E-04 2.567238873E-03 2.566995565E-03 2.567117568E-03
 1.350853854E-04 2.584266476E-03 2.584008733E-03 2.584137954E-03
 1.392991544E-04 2.600086387E-03 2.599813743E-03 2.599950414E-03
 1.436425227E-04 2.614799887E-03 2.614511643E-03 2.614655998E-03
 1.481195213E-04 2.628499409E-03 2.628195332E-03 2.628347836E-03
 1.527343265E-04 2.641270403E-03 2.640950028E-03 2.641110681E-03
 1.574912167E-04 2.653191797E-03 2.652854659E-03 2.653023461E-03
 1.623946155E-04 2.664333908E-03 2.663979540E-03 2.664157189E-03
 1.674490923E-04 2.674762858E-03 2.674390795E-03 2.674577292E-03
 1.726593473E-04 2.684537088E-03 2.684146632E-03 2.684342209E-03
 1.780302409E-04 2.693710616E-03 2.693301300E-03 2.693506423E-03
 1.835667499E-04 2.702332102E-03 2.701903693E-03 2.702118363E-03
 1.892740256E-04 2.710445551E-03 2.709997119E-03 2.710221801E-03
 1.951573940E-04 2.718091011E-03 2.717622323E-03 2.717857249E-03
 2.012223267E-04 2.725304337E-03 2.724814694E-03 2.725059865E-03
 2.074744407E-04 2.732118359E-03 2.731607296E-03 2.731863409E-03
 2.139195858E-04 2.738562645E-03 2.738029463E-03 2.738296520E-03
 2.205637284E-04 2.744663274E-03 2.744107274E-03 2.744385973E-03
 2.274130820E-04 2.750444692E-03 2.749865409E-03 2.750155749E-03
 2.344739914E-04 2.755928552E-03 2.755325055E-03 2.755627502E-03
 2.417530341E-04 2.761133946E-03 2.760505769E-03 2.760820556E-03
 2.492569620E-04 2.766079037E-03 2.765425248E-03 2.765752841E-03
 2.569928183E-04 2.770779654E-03 2.770099789E-03 2.770440653E-03
 2.649677335E-04 2.775249770E-03 2.774542896E-03 2.774897264E-03
 2.731891291E-04 2.779503120E-03 2.778768307E-03 2.779136412E-03
 2.816647175E-04 2.783550881E-03 2.782787196E-03 2.783169970E-03
 2.904023277E-04 2.787403762E-03 2.786610741E-03 2.787008183E-03
 2.994100796E-04 2.791071543E-03 2.790247789E-03 2.790660597E-03
 3.086963843E-04 2.794563072E-03 2.793707652E-03 2.794136293E-03
 3.182698856E-04 2.797885332E-03 2.796997782E-03 2.797442721E-03
 3.281394893E-04 2.801046474E-03 2.800125163E-03 2.800586866E-03
 3.383143339E-04 2.804052318E-03 2.803096548E-03 2.803575713E-03
 3.488039365E-04 2.806909150E-03 2.805917291E-03 2.806414384E-03
 3.596180177E-04 2.809621627E-03 2.808592981E-03 2.809108701E-03
 3.707666765E-04 2.812194871E-03 2.811128041E-03 2.811662853E-03
 3.822602448E-04 2.814632840E-03 2.813526662E-03 2.814081265E-03
 3.941094328E-04 2.816939726E-03 2.815792803E-03 2.816367662E-03
 4.063252709E-04 2.819119021E-03 2.817930188E-03 2.818526234E-03
 4.189191386E-04 2.821173519E-03 2.819941379E-03 2.820559079E-03
 4.319027066E-04 2.823106013E-03 2.821828704E-03 2.822468989E-03
 4.452880821E-04 2.824919065E-03 2.823595190E-03 2.824258991E-03
 4.590877215E-04 2.826615470E-03 2.825243631E-03 2.825931413E-03
 4.733144306E-04 2.828195924E-03 2.826774493E-03 2.827487187E-03
 4.879814805E-04 2.829662757E-03 2.828190103E-03 2.828928409E-03
 5.031024921E-04 2.831017366E-03 2.829491626E-03 2.830256708E-03
 5.186916096E-04 2.832261147E-03 2.830680460E-03 2.831473015E-03
 5.347632105E-04 2.833394567E-03 2.831757069E-03 2.832578029E-03
 5.513323122E-04 2.834418789E-03 2.832722617E-03 2.833573148E-03
 5.684143398E-04 2.835334046E-03 2.833577106E-03 2.834458137E-03
 5.860251840E-04 2.836141502E-03 2.834321698E-03 2.835234394E-03
 6.041811430E-04 2.836840460E-03 2.834955696E-03 2.835900756E-03
 6.228992715E-04 2.837431384E-03 2.835479332E-03 2.836458152E-03
 6.421967992E-04 2.837913577E-03 2.835891908E-03 2.836905653E-03
 6.620918284E-04 2.838287503E-03 2.836193889E-03 2.837243723E-03
 6.826028111E-04 2.838551765E-03 2.836383646E-03 2.837470965E-03
 7.037487812E-04 2.838706365E-03 2.836461179E-03 2.837587148E-03
 7.255495293E-04 2.838750137E-03 2.836424857E-03 2.837590873E-03
 7.480251952E-04 2.838681918E-03 2.836274216E-03 2.837481676E-03
 7.711967919E-04 2.838500310E-03 2.836007159E-03 2.837257460E-03
 7.950857980E-04 2.838203683E-03 2.835622057E-03 2.836916829E-03
 8.197145071E-04 2.837790642E-03 2.835117746E-03 2.836458385E-03
 8.451058529E-04 2.837259788E-03 2.834492363E-03 2.835880267E-03
 8.712833514E-04 2.836608328E-03 2.833742881E-03 2.835179912E-03
 8.982714498E-04 2.835833700E-03 2.832866972E-03 2.834354993E-03
 9.260951774E-04 2.834934508E-03 2.831862774E-03 2.833403414E-03
 9.547804948E-04 2.833907027E-03 2.830727026E-03 2.832322149E-03
 9.843540611E-04 2.832748229E-03 2.829456003E-03 2.831107471E-03
 1.014843350E-03 2.831455786E-03 2.828047611E-03 2.829757286E-03
 1.046276768E-03 2.830025740E-03 2.826497424E-03 2.828267170E-03
 1.078683534E-03 2.828453900E-03 2.824801253E-03 2.826633630E-03
 1.112093800E-03 2.826736541E-03 2.822955605E-03 2.824852243E-03
 1.146538649E-03 2.824869240E-03 2.820955589E-03 2.822918817E-03
 1.182050211E-03 2.822848037E-03 2.818796784E-03 2.820829162E-03
 1.218661433E-03 2.820667112E-03 2.816474065E-03 2.818577690E-03
 1.256406307E-03 2.818321344E-03 2.813981147E-03 2.816158580E-03
 1.295320108E-03 2.815805376E-03 2.811313607E-03 2.813567175E-03
 1.335438923E-03 2.813112922E-03 2.808463993E-03 2.810796490E-03
 1.376800123E-03 2.810237696E-03 2.805426717E-03 2.807840472E-03
 1.419442124E-03 2.807172947E-03 2.802194562E-03 2.804692602E-03
 1.463404740E-03 2.803911455E-03 2.798759844E-03 2.801344730E-03
 1.508728717E-03 2.800445305E-03 2.795114648E-03 2.797789406E-03
 1.555456314E-03 2.796766581E-03 2.791251522E-03 2.794018947E-03
 1.603630953E-03 2.792866901E-03 2.787160920E-03 2.790024271E-03
 1.653297455E-03 2.788736718E-03 2.782833995E-03 2.785796067E-03
 1.704502036E-03 2.784366254E-03 2.778260270E-03 2.781324554E-03
 1.757292310E-03 2.779745497E-03 2.773429966E-03 2.776599256E-03
 1.811717520E-03 2.774863504E-03 2.768331673E-03 2.771609696E-03
 1.867828076E-03 2.769708633E-03 2.762953984E-03 2.766343998E-03
 1.925676246E-03 2.764269011E-03 2.757284325E-03 2.760789823E-03
 1.985315932E-03 2.758531598E-03 2.751309890E-03 2.754934365E-03
 2.046802780E-03 2.752482658E-03 2.745016944E-03 2.748764120E-03
 2.110193484E-03 2.746108221E-03 2.738391282E-03 2.742264653E-03
 2.175547648E-03 2.739392454E-03 2.731416840E-03 2.735420130E-03
 2.242925344E-03 2.732319757E-03 2.724077785E-03 2.728214720E-03
 2.312389901E-03 2.724873135E-03 2.716357354E-03 2.720631892E-03
 2.384005813E-03 2.717034658E-03 2.708237385E-03 2.712653251E-03
 2.457839437E-03 2.708785236E-03 2.699698787E-03 2.704260172E-03
 2.533959458E-03 2.700105309E-03 2.690721769E-03 2.695432398E-03
 2.612437122E-03 2.690973459E-03 2.681285143E-03 2.686148975E-03
 2.693345072E-03 2.681368031E-03 2.671366790E-03 2.676387783E-03
 2.776758745E-03 2.671264810E-03 2.660942962E-03 2.666125074E-03
 2.862755442E-03 2.660639817E-03 2.649989678E-03 2.655336866E-03
 2.951415488E-03 2.649466973E-03 2.638480626E-03 2.643996850E-03
 3.042821307E-03 2.637718571E-03 2.626388567E-03 2.632077551E-03
 3.137057880E-03 2.625365974E-03 2.613684628E-03 2.619550098E-03
 3.234212985E-03 2.612378681E-03 2.600338776E-03 2.606384456E-03
 3.334376728E-03 2.598725026E-03 2.586319344E-03 2.592548961E-03
 3.437642707E-03 2.584371250E-03 2.571592806E-03 2.578009851E-03
 3.544106614E-03 2.569281496E-03 2.556123771E-03 2.562731504E-03
 3.653867636E-03 2.553419676E-03 2.539876383E-03 2.546678064E-03
 3.767027752E-03 2.536745276E-03 2.522811061E-03 2.529809251E-03
 3.883692669E-03 2.519218251E-03 2.504887525E-03 2.512085252E-03
 4.003970418E-03 2.500795294E-03 2.486063400E-03 2.493462758E-03
 4.127973225E-03 2.481431002E-03 2.466293750E-03 2.473897068E-03
 4.255816340E-03 2.461078344E-03 2.445532707E-03 2.453341382E-03
 4.387618508E-03 2.439687261E-03 2.423730912E-03 2.431746339E-03
 4.523502663E-03 2.417206531E-03 2.400837839E-03 2.409060718E-03
 4.663594998E-03 2.393581672E-03 2.376800403E-03 2.385230735E-03
 4.808025900E-03 2.368755639E-03 2.351562725E-03 2.360200509E-03
 4.956929944E-03 2.342669759E-03 2.325067064E-03 2.333910903E-03
 5.110444967E-03 2.315262798E-03 2.297254279E-03 2.306302544E-03
 5.268714856E-03 2.286470262E-03 2.268061507E-03 2.277311170E-03
 5.431886297E-03 2.256226726E-03 2.237424720E-03 2.246872522E-03
 5.600110628E-03 2.224463038E-03 2.205277095E-03 2.214918146E-03
 5.773545243E-03 2.191108884E-03 2.171550412E-03 2.181379357E-03
 5.952350795E-03 2.156091388E-03 2.136174589E-03 2.146183979E-03
 6.136693992E-03 2.119335812E-03 2.099077217E-03 2.109259134E-03
 6.326746196E-03 2.080766484E-03 2.060185652E-03 2.070529852E-03
 6.522683892E-03 2.040305408E-03 2.019425156E-03 2.029920463E-03
 6.724690087E-03 1.997874584E-03 1.976720989E-03 1.987354364E-03
 6.932952441E-03 1.953395316E-03 1.931998529E-03 1.942754840E-03
 7.147664204E-03 1.906789956E-03 1.885183854E-03 1.896046102E-03
 7.369025610E-03 1.857981668E-03 1.836204669E-03 1.847153413E-03
 7.597242948E-03 1.806895714E-03 1.784990774E-03 1.796004595E-03
 7.832527161E-03 1.753461780E-03 1.731476746E-03 1.742531545E-03
 8.075099438E-03 1.697613741E-03 1.675601816E-03 1.686670934E-03
 8.325182833E-03 1.639292808E-03 1.617312548E-03 1.628366532E-03
 8.583012037E-03 1.578449388E-03 1.556565287E-03 1.567571773E-03
 8.848825470E-03 1.515045878E-03 1.493328251E-03 1.504251850E-03
 9.122870862E-03 1.449059462E-03 1.427584910E-03 1.438387088E-03
 9.405404329E-03 1.380486530E-03 1.359337708E-03 1.369976904E-03
 9.696686640E-03 1.309346757E-03 1.288612606E-03 1.299044234E-03
 9.996990673E-03 1.235689269E-03 1.215464668E-03 1.225640881E-03
 1.030659489E-02 1.159598469E-03 1.139984000E-03 1.149854157E-03
 1.062578708E-02 1.081202994E-03 1.062304247E-03 1.071815263E-03
 1.095486525E-02 1.000683871E-03 9.826107416E-04 9.917073185E-04
 1.129413396E-02 9.182865033E-04 9.011517977E-04 9.097771253E-04
 1.164390985E-02 8.343338268E-04 8.182514575E-04 8.263480850E-04
 1.200451888E-02 7.492416771E-04 7.343245670E-04 7.418356254E-04
 1.237629540E-02 6.635371246E-04 6.498940056E-04 6.567646633E-04
 1.275958586E-02 5.778804771E-04 5.656118155E-04 5.717913737E-04
 1.315474603E-02 4.930886207E-04 4.822817282E-04 4.877261235E-04
 1.356214564E-02 4.101637460E-04 4.008863179E-04 4.055612080E-04
 1.398216095E-02 3.303229169E-04 3.226150002E-04 3.265000414E-04
 1.441518404E-02 2.550290374E-04 2.488934260E-04 2.519869304E-04
 1.486161817E-02 1.860162884E-04 1.814067800E-04 1.837317541E-04
 1.532187872E-02 1.252915827E-04 1.221000275E-04 1.237105607E-04
 1.579639316E-02 7.505149551E-05 7.309471403E-05 7.408278179E-05
 1.628560200E-02 3.737524094E-05 3.638894486E-05 3.688736615E-05
 1.678996161E-02 1.346845784E-05 1.312101449E-05 1.329683982E-05
 1.730994321E-02 2.431383564E-06 2.379895932E-06 2.406078920E-06
 1.784602553E-02 4.754278038E-08 5.050425145E-08 4.906757312E-08
 1.839871332E-02 -3.328288045E-08 -3.110381286E-08 -3.218307754E-08
 1.896851510E-02 -2.123142373E-08 -1.983815778E-08 -2.052711068E-08
 1.955596358E-02 -7.262693114E-09 -6.405724395E-09 -6.827510113E-09
 2.016160637E-02 6.749447112E-10 1.265648364E-09 9.770083631E-10
 2.078600600E-02 2.218910611E-09 2.778896668E-09 2.505508911E-09
 2.142974176E-02 9.748745144E-10 1.595295118E-09 1.291888263E-09
 2.209341526E-02 -2.773239138E-10 3.944079785E-10 6.531956226E-11
 2.277764119E-02 -7.330490659E-10 -4.400640269E-11 -3.816626459E-10
 2.348305658E-02 -6.746172510E-10 1.099681023E-11 -3.249889524E-10
 2.421032079E-02 -5.159134231E-10 1.640942521E-10 -1.690477064E-10
 2.496010624E-02 -4.360622974E-10 2.427251455E-10 -8.981734106E-11
 2.573311329E-02 -4.315584001E-10 2.491818141E-10 -8.430290493E-11
 2.653006092E-02 -4.509615181E-10 2.326445286E-10 -1.022698037E-10
 2.735168859E-02 -4.641707574E-10 2.217226680E-10 -1.143111023E-10
 2.819876187E-02 -4.677785936E-10 2.198825566E-10 -1.170277486E-10
 2.907206863E-02 -4.673725851E-10 2.217704770E-10 -1.158625973E-10
 2.997242101E-02 -4.670701048E-10 2.235327062E-10 -1.148207501E-10
 3.090065904E-02 -4.676726229E-10 2.243504271E-10 -1.146979872E-10
 3.185764328E-02 -4.686817601E-10 2.247248360E-10 -1.150049223E-10
 3.284426406E-02 -4.696519285E-10 2.250575559E-10 -1.153105181E-10
 3.386143968E-02 -4.705023038E-10 2.254479797E-10 -1.155299953E-10
 3.491012007E-02 -4.712313317E-10 2.258901816E-10 -1.156616400E-10
 3.599127382E-02 -4.719374891E-10 2.262965093E-10 -1.158013962E-10
 3.710591421E-02 -4.724647895E-10 2.268162325E-10 -1.157941798E-10
 3.825507313E-02 -4.728358260E-10 2.274314764E-10 -1.156622506E-10
 3.943981975E-02 -4.732555459E-10 2.279384320E-10 -1.156085921E-10
 4.066125676E-02 -4.736513959E-10 2.284180345E-10 -1.155572166E-10
 4.192052409E-02 -4.739817427E-10 2.289127360E-10 -1.154656093E-10
 4.321879148E-02 -4.742307103E-10 2.294410495E-10 -1.153168394E-10
 4.455726221E-02 -4.744067361E-10 2.299940516E-10 -1.151194071E-10
 4.593718797E-02 -4.745330795E-10 2.305515778E-10 -1.148951628E-10
 4.735985026E-02 -4.746291693E-10 2.310960312E-10 -1.146624323E-10
 4.882656783E-02 -4.747010007E-10 2.316256353E-10 -1.144253789E-10
 5.033871159E-02 -4.747420235E-10 2.321491194E-10 -1.141759395E-10
 5.189768597E-02 -4.747364168E-10 2.326866477E-10 -1.138966213E-10
 5.350494012E-02 -4.746627535E-10 2.332611604E-10 -1.135645883E-10
 5.516197160E-02 -4.745744908E-10 2.338204907E-10 -1.132334504E-10
 5.687032267E-02 -4.744792892E-10 2.343666650E-10 -1.129052199E-10
 5.863158032E-02 -4.743363480E-10 2.349345440E-10 -1.125427529E-10
 6.044737995E-02 -4.741742554E-10 2.355011741E-10 -1.121711751E-10
 6.231941655E-02 -4.739931225E-10 2.360699136E-10 -1.117893902E-10
 6.424943358E-02 -4.737913395E-10 2.366440932E-10 -1.113944492E-10
 6.623921543E-02 -4.735715153E-10 2.372237129E-10 -1.109881076E-10
 6.829062104E-02 -4.733343717E-10 2.378104103E-10 -1.105697131E-10
 7.040556520E-02 -4.730810743E-10 2.384040465E-10 -1.101398764E-10
 7.258599997E-02 -4.728103464E-10 2.390089238E-10 -1.096958149E-10
 7.483396679E-02 -4.725108083E-10 2.396381149E-10 -1.092253024E-10
 7.715155184E-02 -4.722076064E-10 2.402676669E-10 -1.087528678E-10
 7.954090834E-02 -4.718967994E-10 2.409035749E-10 -1.082736886E-10
 8.200427145E-02 -4.715594026E-10 2.415659062E-10 -1.077680584E-10
 8.454391360E-02 -4.712118473E-10 2.422385625E-10 -1.072523043E-10
 8.716221154E-02 -4.708485823E-10 2.429284274E-10 -1.067201466E-10
 8.986160159E-02 -4.704676093E-10 2.436382762E-10 -1.061692956E-10
 9.264458716E-02 -4.700681511E-10 2.443693581E-10 -1.055986548E-10
 9.551376104E-02 -4.696496525E-10 2.451225056E-10 -1.050075929E-10
 9.847179055E-02 -4.692136124E-10 2.458969695E-10 -1.043972131E-10
 1.015214324E-01 -4.687591981E-10 2.466929994E-10 -1.037669395E-10
 1.046655178E-01 -4.682854660E-10 2.475126770E-10 -1.031152871E-10
 1.079069749E-01 -4.677884746E-10 2.483600547E-10 -1.024381829E-10
 1.112488210E-01 -4.672717768E-10 2.492303586E-10 -1.017398943E-10
 1.146941632E-01 -4.667345399E-10 2.501265861E-10 -1.010184436E-10
 1.182462052E-01 -4.661695474E-10 2.510537611E-10 -1.002677455E-10
 1.219082549E-01 -4.655798802E-10 2.520087194E-10 -9.949081836E-11
 1.256837100E-01 -4.649633734E-10 2.529922105E-10 -9.868634382E-11
 1.295761019E-01 -4.643073426E-10 2.539989608E-10 -9.785072058E-11
 1.335890293E-01 -4.636391271E-10 2.550453737E-10 -9.698896547E-11
 1.377262473E-01 -4.629416017E-10 2.561234280E-10 -9.609678331E-11
 1.419915855E-01 -4.622102423E-10 2.572316249E-10 -9.517270999E-11
 1.463890225E-01 -4.614454374E-10 2.583715464E-10 -9.421616959E-11
 1.509226412E-01 -4.606470760E-10 2.595441084E-10 -9.322657230E-11
 1.555966735E-01 -4.598135761E-10 2.607504490E-10 -9.220261360E-11
 1.604154557E-01 -4.589458813E-10 2.619894857E-10 -9.114523025E-11
 1.653834581E-01 -4.580410495E-10 2.632628560E-10 -9.005220181E-11
 1.705053449E-01 -4.570969159E-10 2.645719477E-10 -8.892170333E-11
 1.757858396E-01 -4.561138411E-10 2.659156784E-10 -8.775451199E-11
 1.812298745E-01 -4.550905486E-10 2.672943533E-10 -8.654981593E-11
 1.868425012E-01 -4.540257337E-10 2.687083611E-10 -8.530672696E-11
 1.926289499E-01 -4.529179254E-10 2.701578128E-10 -8.402455814E-11
 1.985946149E-01 -4.517659302E-10 2.716425695E-10 -8.270274049E-11
 2.047450244E-01 -4.505673890E-10 2.731619098E-10 -8.134052459E-11
 2.110859156E-01 -4.493289074E-10 2.747203853E-10 -7.993875700E-11
 2.176231891E-01 -4.480391336E-10 2.763111684E-10 -7.849537687E-11
 2.243629098E-01 -4.467007042E-10 2.779362018E-10 -7.701073113E-11
 2.313113511E-01 -4.453134528E-10 2.795952636E-10 -7.548478509E-11
 2.384749949E-01 -4.438762413E-10 2.812877709E-10 -7.391733753E-11
 2.458604872E-01 -4.423882094E-10 2.830128909E-10 -7.230835375E-11
 2.534747124E-01 -4.408488019E-10 2.847695413E-10 -7.065811131E-11
 2.613247335E-01 -4.392572694E-10 2.865564452E-10 -6.896687388E-11
 2.694178820E-01 -4.376129459E-10 2.883724093E-10 -6.723503698E-11
 2.777616680E-01 -4.359154704E-10 2.902157681E-10 -6.546311410E-11
 2.863638699E-01 -4.341646487E-10 2.920847730E-10 -6.365199340E-11
 2.952324748E-01 -4.323605085E-10 2.939775368E-10 -6.180265327E-11
 3.043757379E-01 -4.305028833E-10 2.958918666E-10 -5.991611374E-11
 3.138021529E-01 -4.285919675E-10 2.978254032E-10 -5.799367236E-11
 3.235205114E-01 -4.266283160E-10 2.997753434E-10 -5.603700143E-11
 3.335398436E-01 -4.246125396E-10 3.017389394E-10 -5.404785300E-11
 3.438694775E-01 -4.225455819E-10 3.037129714E-10 -5.202832262E-11
 3.545189798E-01 -4.204285808E-10 3.056940534E-10 -4.998066197E-11
 3.654983342E-01 -4.182631186E-10 3.076785215E-10 -4.790753211E-11
 3.768177032E-01 -4.160509715E-10 3.096625179E-10 -4.581178839E-11
 3.884876370E-01 -4.137943044E-10 3.116417957E-10 -4.369664700E-11
 4.005189836E-01 -4.114957264E-10 3.136119697E-10 -4.156559472E-11
 4.129229188E-01 -4.091580963E-10 3.155684047E-10 -3.942246876E-11
 4.257110059E-01 -4.067848836E-10 3.175061325E-10 -3.727141859E-11
 4.388951659E-01 -4.043799462E-10 3.194201015E-10 -3.511695448E-11
 4.524875879E-01 -4.019475863E-10 3.213049549E-10 -3.296391285E-11
 4.665009975E-01 -3.994926612E-10 3.231551970E-10 -3.081749439E-11
 4.809483886E-01 -3.970205831E-10 3.249652492E-10 -2.868317563E-11
 4.958432019E-01 -3.945371529E-10 3.267293658E-10 -2.656672798E-11
 5.111992955E-01 -3.920488656E-10 3.284418848E-10 -2.447422820E-11
 5.270310044E-01 -3.895626877E-10 3.300969498E-10 -2.241202189E-11
 5.433530211E-01 -3.870862519E-10 3.316893149E-10 -2.038664203E-11
 5.601804852E-01 -3.846272467E-10 3.332130682E-10 -1.840479852E-11
 5.775290728E-01 -3.821943317E-10 3.346634636E-10 -1.647314923E-11
 5.954149961E-01 -3.797961945E-10 3.360358103E-10 -1.459829133E-11
 6.138547659E-01 -3.774417168E-10 3.373266666E-10 -1.278654699E-11
 6.328656673E-01 -3.751411681E-10 3.385311753E-10 -1.104508499E-11
 6.524653435E-01 -3.729063169E-10 3.396453951E-10 -9.382134826E-12
 6.726719737E-01 -3.707498475E-10 3.406629701E-10 -7.806470748E-12
 6.935044527E-01 -3.686792815E-10 3.415878969E-10 -6.320721724E-12
 7.149820328E-01 -3.666895398E-10 3.424332484E-10 -4.914302906E-12
 7.371248007E-01 -3.647658009E-10 3.432323870E-10 -3.565152080E-12
 7.599533200E-01 -3.629144207E-10 3.439850349E-10 -2.273165814E-12
 7.834888697E-01 -3.612190547E-10 3.446291308E-10 -1.116074355E-12
 8.077532649E-01 -3.598475407E-10 3.449835695E-10 -2.605087641E-13
 8.327691555E-01 -3.589433473E-10 3.449507624E-10 1.614644020E-13
 8.585597277E-01 -3.583100761E-10 3.447054309E-10 3.536028621E-13
 8.851490617E-01 -3.573022989E-10 3.449992791E-10 9.864531067E-13
 9.125618339E-01 -3.550875149E-10 3.466492093E-10 2.928444596E-12
 9.408236146E-01 -3.517116598E-10 3.496750389E-10 6.108758464E-12
 9.699606299E-01 -3.483957012E-10 3.526519909E-10 9.256671818E-12
 1.000000000E+00 -3.467471033E-10 3.539064874E-10 1.071539732E-11
ZONE T="SA-RC-QCR, X=0.97008"
 0.000000000E+00 0.000000000E+00 0.000000000E+00 0.000000000E+00
 4.999999987E-07 2.020673039E-11 1.139094374E-11 1.579884834E-11
 1.000465204E-06 3.239087054E-10 1.825940232E-10 2.532514753E-10
 1.501861107E-06 1.644869130E-09 9.272487778E-10 1.286058593E-09
 2.004654107E-06 5.221145738E-09 2.943268296E-09 4.082207905E-09
 2.509312253E-06 1.281800444E-08 7.225783083E-09 1.002189176E-08
 3.016304618E-06 2.676042854E-08 1.508541025E-08 2.092292206E-08
 3.526103228E-06 4.997576397E-08 2.817238887E-08 3.907407375E-08
 4.039182386E-06 8.604697399E-08 4.850645396E-08 6.727671575E-08
 4.556018666E-06 1.392775175E-07 7.851362227E-08 1.088955628E-07
 5.077094102E-06 2.147683773E-07 1.210693199E-07 1.679188557E-07
 5.602892543E-06 3.185087962E-07 1.795499287E-07 2.490293696E-07
 6.133903298E-06 4.574815762E-07 2.578916281E-07 3.576866163E-07
 6.670620678E-06 6.397845596E-07 3.606594703E-07 5.002219723E-07
 7.213543540E-06 8.747697962E-07 4.931252988E-07 6.839475191E-07
 7.763177564E-06 1.173202577E-06 6.613576602E-07 9.172800901E-07
 8.320033885E-06 1.547441798E-06 8.723235965E-07 1.209882726E-06
 8.884630006E-06 2.011643801E-06 1.134003242E-06 1.572823521E-06
 9.457491615E-06 2.581994067E-06 1.455520419E-06 2.018757186E-06
 1.003915168E-05 3.276964208E-06 1.847288331E-06 2.562126383E-06
 1.063015134E-05 4.117605386E-06 2.321173497E-06 3.219389555E-06
 1.123103993E-05 5.127872100E-06 2.890679752E-06 4.009275926E-06
 1.184237772E-05 6.334984846E-06 3.571151183E-06 4.953068128E-06
 1.246473221E-05 7.769834156E-06 4.380002338E-06 6.074918474E-06
 1.309868276E-05 9.467428754E-06 5.336966296E-06 7.402197298E-06
 1.374481872E-05 1.146738305E-05 6.464376838E-06 8.965879715E-06
 1.440374217E-05 1.381446600E-05 7.787469258E-06 1.080096717E-05
 1.507606521E-05 1.655918823E-05 9.334718015E-06 1.294695358E-05
 1.576241448E-05 1.975844680E-05 1.113819417E-05 1.544832048E-05
 1.646342571E-05 2.347621557E-05 1.323396373E-05 1.835508920E-05
 1.717975465E-05 2.778429553E-05 1.566250285E-05 2.172339737E-05
 1.791206523E-05 3.276309508E-05 1.846913437E-05 2.561611291E-05
 1.866104139E-05 3.850244320E-05 2.170449989E-05 3.010347064E-05
 1.942737617E-05 4.510246799E-05 2.542504080E-05 3.526375440E-05
 2.021178625E-05 5.267442612E-05 2.969347406E-05 4.118395009E-05
 2.101499740E-05 6.134156138E-05 3.457927596E-05 4.796041685E-05
 2.183776087E-05 7.123988325E-05 4.015911691E-05 5.569950008E-05
 2.268083881E-05 8.251895633E-05 4.651729978E-05 6.451812806E-05
 2.354501703E-05 9.534238779E-05 5.374606553E-05 7.454423030E-05
 2.443110134E-05 1.098883367E-04 6.194582966E-05 8.591708320E-05
 2.533991210E-05 1.263495942E-04 7.122527313E-05 9.878743731E-05
 2.627229696E-05 1.449334522E-04 8.170126239E-05 1.133173573E-04
 2.722912359E-05 1.658609835E-04 9.349839820E-05 1.296796836E-04
 2.821128328E-05 1.893659355E-04 1.067484554E-04 1.480571955E-04
 2.921968553E-05 2.156928676E-04 1.215892917E-04 1.686410833E-04
 3.025527258E-05 2.450944448E-04 1.381633338E-04 1.916289038E-04
 3.131900667E-05 2.778280759E-04 1.566156861E-04 2.172218810E-04
 3.241187733E-05 3.141511697E-04 1.770914387E-04 2.456213115E-04
 3.353489956E-05 3.543155908E-04 1.997326035E-04 2.770240826E-04
 3.468912109E-05 3.985609219E-04 2.246741496E-04 3.116175358E-04
 3.587561514E-05 4.471066350E-04 2.520398994E-04 3.495732672E-04
 3.709548400E-05 5.001432728E-04 2.819371875E-04 3.910402302E-04
 3.834985910E-05 5.578226992E-04 3.144515795E-04 4.361371393E-04
 3.963991549E-05 6.202483783E-04 3.496414865E-04 4.849449324E-04
 4.096685007E-05 6.874649553E-04 3.875320253E-04 5.374985049E-04
 4.233189611E-05 7.594490307E-04 4.281099245E-04 5.937794922E-04
 4.373632328E-05 8.361006039E-04 4.713188973E-04 6.537098088E-04
 4.518143760E-05 9.172369610E-04 5.170558579E-04 7.171464385E-04
 4.666858513E-05 1.002588542E-03 5.651688552E-04 7.838787278E-04
 4.819914830E-05 1.091798185E-03 6.154565490E-04 8.536273963E-04
 4.977455319E-05 1.184424385E-03 6.676701014E-04 9.260472725E-04
 5.139626228E-05 1.279948279E-03 7.215169026E-04 1.000732649E-03
 5.306578896E-05 1.377783949E-03 7.766666240E-04 1.077225315E-03
 5.478467938E-05 1.477292739E-03 8.327593096E-04 1.155026024E-03
 5.655453788E-05 1.577800373E-03 8.894148050E-04 1.233607647E-03
 5.837701246E-05 1.678615576E-03 9.462434682E-04 1.312429551E-03
 6.025379116E-05 1.779049635E-03 1.002856879E-03 1.390953315E-03
 6.218662747E-05 1.878435491E-03 1.058879076E-03 1.468657283E-03
 6.417731493E-05 1.976146130E-03 1.113956678E-03 1.545051346E-03
 6.622770888E-05 2.071608091E-03 1.167766168E-03 1.619687187E-03
 6.833971565E-05 2.164314967E-03 1.220022328E-03 1.692168647E-03