VARIABLES = "y","u'u'_nok","v'v'_nok","w'w'_nok"
ZONE T="SA, X=0.97008"
 0.000000000E+00 0.000000000E+00 0.000000000E+00 0.000000000E+00
 4.999999987E-07 8.657005939E-18 -1.623556357E-17 7.578557635E-18
 1.000465204E-06 1.103060368E-16 -1.860214716E-16 7.571544136E-17
 1.501861107E-06 -2.505975760E-17 3.138100104E-16 -2.887502495E-16
 2.004654107E-06 1.780313119E-15 -2.443405450E-15 6.630923842E-16
 2.509312253E-06 2.238522791E-15 -1.043766408E-15 -1.194756489E-15
 3.016304618E-06 1.040748535E-14 -1.219902102E-14 1.791536517E-15
 3.526103228E-06 1.633775783E-14 -1.386544738E-14 -2.472310237E-15
 4.039182386E-06 4.010520079E-14 -4.311100224E-14 3.005805892E-15
 4.556018666E-06 6.405014458E-14 -6.036628310E-14 -3.683864449E-15
 5.077094102E-06 1.202786379E-13 -1.241635917E-13 3.884949647E-15
 5.602892543E-06 1.859791075E-13 -1.814636901E-13 -4.515421680E-15
 6.133903298E-06 3.037226774E-13 -3.078977232E-13 4.175073254E-15
 6.670620678E-06 4.505408091E-13 -4.455025758E-13 -5.038253191E-15
 7.213543540E-06 6.774780389E-13 -6.813327571E-13 3.854739793E-15
 7.763177564E-06 9.668042191E-13 -9.613067720E-13 -5.497411964E-15
 8.320033885E-06 1.377341275E-12 -1.380181017E-12 2.839873620E-15
 8.884630006E-06 1.902277164E-12 -1.896381923E-12 -5.895255716E-15
 9.457491615E-06 2.608679332E-12 -2.610096817E-12 1.417593917E-15
 1.003915168E-05 3.505869640E-12 -3.498933782E-12 -6.935901760E-15
 1.063015134E-05 4.672723146E-12 -4.671236922E-12 -1.486658125E-15
 1.123103993E-05 6.141573795E-12 -6.132404046E-12 -9.170207386E-15
 1.184237772E-05 8.008141025E-12 -8.002997570E-12 -5.142791032E-15
 1.246473221E-05 1.033459256E-11 -1.032284327E-11 -1.174820383E-14
 1.309868276E-05 1.323974264E-11 -1.322905934E-11 -1.068326319E-14
 1.374481872E-05 1.682763651E-11 -1.681048183E-11 -1.715487866E-14
 1.440374217E-05 2.125293691E-11 -2.123526181E-11 -1.767423352E-14
 1.507606521E-05 2.666889626E-11 -2.664314082E-11 -2.575485161E-14
 1.576241448E-05 3.328608569E-11 -3.325865278E-11 -2.743344052E-14
 1.646342571E-05 4.132368406E-11 -4.128881265E-11 -3.487114704E-14
 1.717975465E-05 5.106429168E-11 -5.102715819E-11 -3.713683481E-14
 1.791206523E-05 6.281424686E-11 -6.276791586E-11 -4.633551436E-14
 1.866104139E-05 7.695656612E-11 -7.690455217E-11 -5.201220382E-14
 1.942737617E-05 9.392124578E-11 -9.386209171E-11 -5.915219351E-14
 2.021178625E-05 1.142212089E-10 -1.141594666E-10 -6.174525951E-14
 2.101499740E-05 1.384436177E-10 -1.383814868E-10 -6.212367318E-14
 2.183776087E-05 1.672757488E-10 -1.672187250E-10 -5.702501595E-14
 2.268083881E-05 2.015047434E-10 -2.014534789E-10 -5.125753134E-14
 2.354501703E-05 2.420553480E-10 -2.420206535E-10 -3.469263993E-14
 2.443110134E-05 2.899829821E-10 -2.899774310E-10 -5.538607835E-15
 2.533991210E-05 3.465049359E-10 -3.465479848E-10 4.307031755E-14
 2.627229696E-05 4.130156772E-10 -4.131348597E-10 1.191972275E-13
 2.722912359E-05 4.911016038E-10 -4.913278673E-10 2.262924142E-13
 2.821128328E-05 5.825580573E-10 -5.829167149E-10 3.586838671E-13
 2.921968553E-05 6.894583793E-10 -6.900062743E-10 5.479347445E-13
 3.025527258E-05 8.141107788E-10 -8.149078079E-10 7.969715382E-13
 3.131900667E-05 9.591326622E-10 -9.602642015E-10 1.131519032E-12
 3.241187733E-05 1.127434479E-09 -1.128996119E-09 1.561772738E-12
 3.353489956E-05 1.322225218E-09 -1.324292453E-09 2.067300541E-12
 3.468912109E-05 1.547158845E-09 -1.549883666E-09 2.724797601E-12
 3.587561514E-05 1.806135352E-09 -1.809629113E-09 3.493776666E-12
 3.709548400E-05 2.103494046E-09 -2.107892749E-09 4.398573953E-12
 3.834985910E-05 2.443958369E-09 -2.449424441E-09 5.465889460E-12
 3.963991549E-05 2.832581281E-09 -2.839251501E-09 6.670043858E-12
 4.096685007E-05 3.274822413E-09 -3.282835559E-09 8.012929729E-12
 4.233189611E-05 3.776416513E-09 -3.785820546E-09 9.404036577E-12
 4.373632328E-05 4.343545967E-09 -4.354393290E-09 1.084744360E-11
 4.518143760E-05 4.982679602E-09 -4.994981317E-09 1.230216276E-11
 4.666858513E-05 5.700561800E-09 -5.714257068E-09 1.369490892E-11
 4.819914830E-05 6.504237593E-09 -6.519208284E-09 1.497037737E-11
 4.977455319E-05 7.400954960E-09 -7.416978587E-09 1.602324003E-11
 5.139626228E-05 8.398187923E-09 -8.414934527E-09 1.674662665E-11
 5.306578896E-05 9.503722254E-09 -9.520865873E-09 1.714361812E-11
 5.478467938E-05 1.072549072E-08 -1.074267963E-08 1.718873655E-11
 5.655453788E-05 1.207160327E-08 -1.208848222E-08 1.687850033E-11
 5.837701246E-05 1.355038393E-08 -1.356667667E-08 1.629294095E-11
 6.025379116E-05 1.517017623E-08 -1.518560389E-08 1.542830794E-11
 6.218662747E-05 1.693938323E-08 -1.695364737E-08 1.426458084E-11
 6.417731493E-05 1.886679257E-08 -1.887992340E-08 1.312972821E-11
 6.622770888E-05 2.096091123E-08 -2.097299223E-08 1.208016239E-11
 6.833971565E-05 2.323037229E-08 -2.324173742E-08 1.136537999E-11
 7.051529974E-05 2.568352819E-08 -2.569462865E-08 1.110118161E-11
 7.275648386E-05 2.832821444E-08 -2.833930957E-08 1.109823258E-11
 7.506535621E-05 3.117276748E-08 -3.118475789E-08 1.198957426E-11
 7.744405593E-05 3.422417549E-08 -3.423764383E-08 1.346815107E-11
 7.989480946E-05 3.748937516E-08 -3.750505684E-08 1.568498977E-11
 8.241988689E-05 4.097475781E-08 -4.099361561E-08 1.885816676E-11
 8.502163837E-05 4.468566672E-08 -4.470852133E-08 2.285142561E-11
 8.770249406E-05 4.862687319E-08 -4.865460212E-08 2.772911241E-11
 9.046493506E-05 5.280188020E-08 -5.283498083E-08 3.310009905E-11
 9.331152978E-05 5.721399532E-08 -5.725323504E-08 3.924146424E-11
 9.624494123E-05 6.186539281E-08 -6.191153545E-08 4.614473734E-11
 9.926789062E-05 6.675733744E-08 -6.681105447E-08 5.372267561E-11
 1.023831865E-04 7.189046158E-08 -7.195249907E-08 6.204162878E-11
 1.055937319E-04 7.726432472E-08 -7.733512319E-08 7.079167808E-11
 1.089025172E-04 8.287808129E-08 -8.295790366E-08 7.982822736E-11
 1.123126131E-04 8.873074364E-08 -8.882013702E-08 8.939341628E-11
 1.158271916E-04 9.482078411E-08 -9.492025299E-08 9.946988372E-11
 1.194495271E-04 1.011463766E-07 -1.012563686E-07 1.099879562E-10
 1.231829810E-04 1.077059579E-07 -1.078271197E-07 1.211633710E-10
 1.270310458E-04 1.144974391E-07 -1.146300406E-07 1.325985294E-10
 1.309972722E-04 1.215191077E-07 -1.216631489E-07 1.440247088E-10
 1.350853854E-04 1.287704521E-07 -1.289264446E-07 1.559907342E-10
 1.392991544E-04 1.362507902E-07 -1.364192457E-07 1.684567624E-10
 1.436425227E-04 1.439600652E-07 -1.441413957E-07 1.813325462E-10
 1.481195213E-04 1.518989166E-07 -1.520935626E-07 1.946329348E-10
 1.527343265E-04 1.600687369E-07 -1.602770681E-07 2.083209993E-10
 1.574912167E-04 1.684717432E-07 -1.686941431E-07 2.224108675E-10
 1.623946155E-04 1.771110192E-07 -1.773479994E-07 2.369885954E-10
 1.674490923E-04 1.859904302E-07 -1.862424597E-07 2.520217646E-10
 1.726593473E-04 1.951147937E-07 -1.953823698E-07 2.675734356E-10
 1.780302409E-04 2.044896945E-07 -2.047732721E-07 2.835895963E-10
 1.835667499E-04 2.141217124E-07 -2.144219309E-07 3.002267324E-10
 1.892740256E-04 2.240180095E-07 -2.243352810E-07 3.172768159E-10
 1.951573940E-04 2.341871550E-07 -2.345223464E-07 3.351868505E-10
 2.012223267E-04 2.446378176E-07 -2.449914973E-07 3.536581306E-10
 2.074744407E-04 2.553790637E-07 -2.557510754E-07 3.720012631E-10
 2.139195858E-04 2.664231147E-07 -2.668151069E-07 3.919835290E-10
 2.205637284E-04 2.777802024E-07 -2.781927151E-07 4.125252084E-10
 2.274130820E-04 2.894618660E-07 -2.898952118E-07 4.333263748E-10
 2.344739914E-04 3.014817480E-07 -3.019370354E-07 4.553273036E-10
 2.417530341E-04 3.138524960E-07 -3.143304070E-07 4.779217577E-10
 2.492569620E-04 3.265885198E-07 -3.270900208E-07 5.014929028E-10
 2.569928183E-04 3.397042292E-07 -3.402301161E-07 5.258734004E-10
 2.649677335E-04 3.532150572E-07 -3.537663247E-07 5.512670875E-10
 2.731891291E-04 3.671367779E-07 -3.677143354E-07 5.775363521E-10
 2.816647175E-04 3.814861600E-07 -3.820911445E-07 6.049847290E-10
 2.904023277E-04 3.962799724E-07 -3.969132365E-07 6.332564473E-10
 2.994100796E-04 4.115366607E-07 -4.121996824E-07 6.630380134E-10
 3.086963843E-04 4.272742444E-07 -4.279682173E-07 6.939719910E-10
 3.182698856E-04 4.435107712E-07 -4.442358090E-07 7.250588463E-10
 3.281394893E-04 4.602682964E-07 -4.610269855E-07 7.586958284E-10
 3.383143339E-04 4.775656066E-07 -4.783589702E-07 7.933575463E-10
 3.488039365E-04 4.954237056E-07 -4.962527100E-07 8.289999243E-10
 3.596180177E-04 5.138653023E-07 -5.147318234E-07 8.665579365E-10
 3.707666765E-04 5.329119972E-07 -5.338173423E-07 9.053353622E-10
 3.822602448E-04 5.525876077E-07 -5.535335958E-07 9.459388828E-10
 3.941094328E-04 5.729157806E-07 -5.739037761E-07 9.880000151E-10
 4.063252709E-04 5.939216976E-07 -5.949536899E-07 1.032027352E-09
 4.189191386E-04 6.156302561E-07 -6.167078368E-07 1.077571032E-09
 4.319027066E-04 6.380688546E-07 -6.391942975E-07 1.125435634E-09
 4.452880821E-04 6.612641528E-07 -6.624393905E-07 1.175249120E-09
 4.590877215E-04 6.852433216E-07 -6.864693205E-07 1.226024948E-09
 4.733144306E-04 7.100377957E-07 -7.113180800E-07 1.280226036E-09
 4.879814805E-04 7.356762239E-07 -7.370126127E-07 1.336396438E-09
 5.031024921E-04 7.621893587E-07 -7.635837846E-07 1.394468319E-09
 5.186916096E-04 7.896101692E-07 -7.910656450E-07 1.455446985E-09
 5.347632105E-04 8.179710562E-07 -8.194896850E-07 1.518663972E-09
 5.513323122E-04 8.473066941E-07 -8.488915455E-07 1.584773979E-09
 5.684143398E-04 8.776520986E-07 -8.793055599E-07 1.653449155E-09
 5.860251840E-04 9.090440471E-07 -9.107692449E-07 1.725242171E-09
 6.041811430E-04 9.415196587E-07 -9.433194350E-07 1.799757010E-09
 6.228992715E-04 9.751186099E-07 -9.769963754E-07 1.877833888E-09
 6.421967992E-04 1.009880521E-06 -1.011839686E-06 1.959177709E-09
 6.620918284E-04 1.045845693E-06 -1.047888532E-06 2.042814362E-09
 6.826028111E-04 1.083059260E-06 -1.085190434E-06 2.131282262E-09
 7.037487812E-04 1.121563741E-06 -1.123787001E-06 2.223204509E-09
 7.255495293E-04 1.161404271E-06 -1.163722800E-06 2.318559789E-09
 7.480251952E-04 1.202628710E-06 -1.205047170E-06 2.418384382E-09
 7.711967919E-04 1.245284579E-06 -1.247806608E-06 2.522133169E-09
 7.950857980E-04 1.289421903E-06 -1.292052389E-06 2.630441198E-09
 8.197145071E-04 1.335091611E-06 -1.337834760E-06 2.743183014E-09
 8.451058529E-04 1.382346454E-06 -1.385207270E-06 2.860771398E-09
 8.712833514E-04 1.431240548E-06 -1.434223805E-06 2.983219227E-09
 8.982714498E-04 1.481829713E-06 -1.484940640E-06 3.110900870E-09
 9.260951774E-04 1.534170792E-06 -1.537414846E-06 3.243990410E-09
 9.547804948E-04 1.588322561E-06 -1.591704972E-06 3.382492064E-09
 9.843540611E-04 1.644345048E-06 -1.647871954E-06 3.526894998E-09
 1.014843350E-03 1.702300210E-06 -1.705977638E-06 3.677419480E-09
 1.046276768E-03 1.762250804E-06 -1.766085006E-06 3.834173867E-09
 1.078683534E-03 1.824261517E-06 -1.828258974E-06 3.997549847E-09
 1.112093800E-03 1.888398288E-06 -1.892565933E-06 4.167697298E-09
 1.146538649E-03 1.954728532E-06 -1.959073415E-06 4.345016791E-09
 1.182050211E-03 2.023320576E-06 -2.027850087E-06 4.529637554E-09
 1.218661433E-03 2.094244564E-06 -2.098966661E-06 4.722067626E-09
 1.256406307E-03 2.167571438E-06 -2.172493851E-06 4.922295016E-09
 1.295320108E-03 2.243373729E-06 -2.248504643E-06 5.131141290E-09
 1.335438923E-03 2.321723969E-06 -2.327072480E-06 5.348589127E-09
 1.376800123E-03 2.402695600E-06 -2.408269893E-06 5.574339212E-09
 1.419442124E-03 2.486364792E-06 -2.492175327E-06 5.810464998E-09
 1.463404740E-03 2.572805442E-06 -2.578861086E-06 6.055568491E-09
 1.508728717E-03 2.662093721E-06 -2.668404022E-06 6.310404643E-09
 1.555456314E-03 2.754305797E-06 -2.760881898E-06 6.576218237E-09
 1.603630953E-03 2.849517159E-06 -2.856369520E-06 6.852601153E-09
 1.653297455E-03 2.947803750E-06 -2.954944193E-06 7.140612546E-09
 1.704502036E-03 3.049239922E-06 -3.056680043E-06 7.439996175E-09
 1.757292310E-03 3.153900479E-06 -3.161651875E-06 7.751085107E-09
 1.811717520E-03 3.261858637E-06 -3.269933359E-06 8.074650282E-09
 1.867828076E-03 3.373186246E-06 -3.381597708E-06 8.411336516E-09
 1.925676246E-03 3.487952426E-06 -3.496714044E-06 8.761392500E-09
 1.985315932E-03 3.606225391E-06 -3.615350806E-06 9.125300515E-09
 2.046802780E-03 3.728069032E-06 -3.737572570E-06 9.503401621E-09
 2.110193484E-03 3.853544513E-06 -3.863440270E-06 9.895899211E-09
 2.175547648E-03 3.982709131E-06 -3.993012797E-06 1.030363617E-08
 2.242925344E-03 4.115615866E-06 -4.126342901E-06 1.072714273E-08
 2.312389901E-03 4.252311555E-06 -4.263478331E-06 1.116674042E-08
 2.384005813E-03 4.392837582E-06 -4.404460924E-06 1.162326768E-08
 2.457839437E-03 4.537227596E-06 -4.549324331E-06 1.209660550E-08
 2.533959458E-03 4.685507975E-06 -4.698094926E-06 1.258702742E-08
 2.612437122E-03 4.837695997E-06 -4.850790901E-06 1.309561970E-08
 2.693345072E-03 4.993798484E-06 -5.007420896E-06 1.362270474E-08
 2.776758745E-03 5.153810889E-06 -5.167979452E-06 1.416861917E-08
 2.862755442E-03 5.317716386E-06 -5.332450201E-06 1.473378752E-08
 2.951415488E-03 5.485484508E-06 -5.500803127E-06 1.531854998E-08
 3.042821307E-03 5.657067049E-06 -5.672990028E-06 1.592326093E-08
 3.137057880E-03 5.832399438E-06 -5.848947239E-06 1.654830406E-08
 3.234212985E-03 6.011398000E-06 -6.028591542E-06 1.719391385E-08
 3.334376728E-03 6.193956324E-06 -6.211816981E-06 1.786036030E-08
 3.437642707E-03 6.379945717E-06 -6.398493497E-06 1.854776244E-08
 3.544106614E-03 6.569208836E-06 -6.588465567E-06 1.925634230E-08
 3.653867636E-03 6.761562418E-06 -6.781548564E-06 1.998592936E-08
 3.767027752E-03 6.956788638E-06 -6.977525118E-06 2.073688243E-08
 3.883692669E-03 7.154635568E-06 -7.176144209E-06 2.150852296E-08
 4.003970418E-03 7.354813079E-06 -7.377113889E-06 2.230055962E-08
 4.127973225E-03 7.556989658E-06 -7.580103556E-06 2.311363545E-08
 4.255816340E-03 7.760786502E-06 -7.784732588E-06 2.394602561E-08
 4.387618508E-03 7.965776604E-06 -7.990573977E-06 2.479746009E-08
 4.523502663E-03 8.171476111E-06 -8.197142961E-06 2.566725676E-08
 4.663594998E-03 8.377343875E-06 -8.403897482E-06 2.655406384E-08
 4.808025900E-03 8.582773262E-06 -8.610229088E-06 2.745669470E-08
 4.956929944E-03 8.787087609E-06 -8.815461115E-06 2.837354174E-08
 5.110444967E-03 8.989535672E-06 -9.018837773E-06 2.930269360E-08
 5.268714856E-03 9.189282537E-06 -9.219524145E-06 3.024205242E-08
 5.431886297E-03 9.385408703E-06 -9.416597095E-06 3.118895719E-08
 5.600110628E-03 9.576896446E-06 -9.609037079E-06 3.214062616E-08
 5.773545243E-03 9.762629816E-06 -9.795723599E-06 3.309357410E-08
 5.952350795E-03 9.941382814E-06 -9.975426110E-06 3.404366211E-08
 6.136693992E-03 1.011181575E-05 -1.014680311E-05 3.498703194E-08
 6.326746196E-03 1.027246526E-05 -1.030838303E-05 3.591831899E-08
 6.522683892E-03 1.042174063E-05 -1.045857243E-05 3.683194549E-08
 6.724690087E-03 1.055791563E-05 -1.059563783E-05 3.772177948E-08
 6.932952441E-03 1.067912308E-05 -1.071770293E-05 3.858048814E-08
 7.147664204E-03 1.078334935E-05 -1.082274957E-05 3.940044735E-08
 7.369025610E-03 1.086843258E-05 -1.090860496E-05 4.017256217E-08
 7.597242948E-03 1.093205992E-05 -1.097294717E-05 4.088747829E-08
 7.832527161E-03 1.097176755E-05 -1.101330236E-05 4.153411126E-08
 8.075099438E-03 1.098494613E-05 -1.102704664E-05 4.210111726E-08
 8.325182833E-03 1.096884444E-05 -1.101142061E-05 4.257530151E-08
 8.583012037E-03 1.092059392E-05 -1.096353753E-05 4.294268408E-08
 8.848825470E-03 1.083721054E-05 -1.088039971E-05 4.318824409E-08
 9.122870862E-03 1.071564020E-05 -1.075893670E-05 4.329614356E-08
 9.405404329E-03 1.055278699E-05 -1.059603528E-05 4.324797231E-08
 9.696686640E-03 1.034557317E-05 -1.038860046E-05 4.302734880E-08
 9.996990673E-03 1.009100015E-05 -1.013361361E-05 4.261266895E-08
 1.030659489E-02 9.786252122E-06 -9.828239854E-06 4.198771464E-08
 1.062578708E-02 9.428793419E-06 -9.469922588E-06 4.112840202E-08
 1.095486525E-02 9.016543117E-06 -9.056563613E-06 4.002090748E-08
 1.129413396E-02 8.548031474E-06 -8.586671356E-06 3.863970832E-08
 1.164390985E-02 8.022674592E-06 -8.059652828E-06 3.697761031E-08
 1.200451888E-02 7.441027719E-06 -7.476037808E-06 3.501004642E-08
 1.237629540E-02 6.805198154E-06 -6.837940418E-06 3.274231730E-08
 1.275958586E-02 6.119249065E-06 -6.149406090E-06 3.015687255E-08
 1.315474603E-02 5.389812031E-06 -5.417094144E-06 2.728171289E-08
 1.356214564E-02 4.626662758E-06 -4.650777555E-06 2.411463740E-08
 1.398216095E-02 3.843606919E-06 -3.864329756E-06 2.072298422E-08
 1.441518404E-02 3.059235269E-06 -3.076369694E-06 1.713459241E-08
 1.486161817E-02 2.298013442E-06 -2.311492153E-06 1.347876122E-08
 1.532187872E-02 1.590857323E-06 -1.600697601E-06 9.840142923E-09
 1.579639316E-02 9.751635162E-07 -9.816131978E-07 6.449663470E-09
 1.628560200E-02 4.913900398E-07 -4.949053505E-07 3.515360003E-09
 1.678996161E-02 1.730204531E-07 -1.744229934E-07 1.402545746E-09
 1.730994321E-02 2.559737489E-08 -2.589018244E-08 2.928101372E-10
 1.784602553E-02 -1.495421342E-09 1.466050392E-09 2.937098828E-11
 1.839871332E-02 -1.092956947E-09 1.086109758E-09 6.847235886E-12
 1.896851510E-02 -6.991930923E-10 6.940731878E-10 5.119920113E-12
 1.955596358E-02 -4.307171009E-10 4.262513675E-10 4.465755023E-12
 2.016160637E-02 -2.975890923E-10 2.931145882E-10 4.474490656E-12
 2.078600600E-02 -2.821947120E-10 2.777912345E-10 4.403491460E-12
 2.142974176E-02 -3.124781267E-10 3.079425048E-10 4.535631419E-12
 2.209341526E-02 -3.381251112E-10 3.336067811E-10 4.518357043E-12
 2.277764119E-02 -3.468096921E-10 3.422329642E-10 4.576716176E-12
 2.348305658E-02 -3.450807695E-10 3.405332683E-10 4.547504734E-12
 2.421032079E-02 -3.422911399E-10 3.377165492E-10 4.574594609E-12
 2.496010624E-02 -3.416774641E-10 3.371099788E-10 4.567475304E-12
 2.573311329E-02 -3.426652295E-10 3.380749847E-10 4.590265234E-12
 2.653006092E-02 -3.440992491E-10 3.395067838E-10 4.592452287E-12
 2.735168859E-02 -3.452510222E-10 3.406424032E-10 4.608633353E-12
 2.819876187E-02 -3.461373133E-10 3.415238092E-10 4.613504023E-12
 2.907206863E-02 -3.468843546E-10 3.422587214E-10 4.625644052E-12
 2.997242101E-02 -3.476173793E-10 3.429854178E-10 4.631958445E-12
 3.090065904E-02 -3.483325572E-10 3.436904927E-10 4.642078822E-12
 3.185764328E-02 -3.490278344E-10 3.443787755E-10 4.649021619E-12
 3.284426406E-02 -3.496836154E-10 3.450258412E-10 4.657771131E-12
 3.386143968E-02 -3.503075330E-10 3.456427644E-10 4.664784618E-12
 3.491012007E-02 -3.508970614E-10 3.462244380E-10 4.672611256E-12
 3.599127382E-02 -3.514567248E-10 3.467773013E-10 4.679391423E-12
 3.710591421E-02 -3.519838865E-10 3.472971633E-10 4.686743181E-12
 3.825507313E-02 -3.524802950E-10 3.477870214E-10 4.693299568E-12
 3.943981975E-02 -3.529469772E-10 3.482470146E-10 4.699984759E-12
 4.066125676E-02 -3.533878745E-10 3.486815559E-10 4.706306525E-12
 4.192052409E-02 -3.538035420E-10 3.490909506E-10 4.712611378E-12
 4.321879148E-02 -3.541952009E-10 3.494765310E-10 4.718643878E-12
 4.455726221E-02 -3.545627125E-10 3.498381029E-10 4.724639083E-12
 4.593718797E-02 -3.549075200E-10 3.501771373E-10 4.730397931E-12
 4.735985026E-02 -3.552306505E-10 3.504945500E-10 4.736090426E-12
 4.882656783E-02 -3.555341022E-10 3.507925617E-10 4.741542228E-12
 5.033871159E-02 -3.558190687E-10 3.510720603E-10 4.746997934E-12
 5.189768597E-02 -3.560876038E-10 3.513354330E-10 4.752166976E-12
 5.350494012E-02 -3.563406792E-10 3.515832070E-10 4.757459184E-12
 5.516197160E-02 -3.565786832E-10 3.518163261E-10 4.762377992E-12
 5.687032267E-02 -3.568066675E-10 3.520392589E-10 4.767384404E-12
 5.863158032E-02 -3.570214957E-10 3.522493963E-10 4.772098081E-12
 6.044737995E-02 -3.572261653E-10 3.524492642E-10 4.776911072E-12
 6.231941655E-02 -3.574222585E-10 3.526407777E-10 4.781472961E-12
 6.424943358E-02 -3.576107743E-10 3.528246584E-10 4.786125055E-12
 6.623921543E-02 -3.577928509E-10 3.530023496E-10 4.790538192E-12
 6.829062104E-02 -3.579698205E-10 3.531749615E-10 4.794848112E-12
 7.040556520E-02 -3.581420993E-10 3.533430215E-10 4.799088644E-12
 7.258599997E-02 -3.583112695E-10 3.535080007E-10 4.803268460E-12
 7.483396679E-02 -3.584781638E-10 3.536707871E-10 4.807369780E-12
 7.715155184E-02 -3.586433373E-10 3.538319360E-10 4.811388701E-12
 7.954090834E-02 -3.588078168E-10 3.539925575E-10 4.815299635E-12
 8.200427145E-02 -3.589722131E-10 3.541530957E-10 4.819145517E-12
 8.454391360E-02 -3.591366649E-10 3.543137728E-10 4.822896423E-12
 8.716221154E-02 -3.593018383E-10 3.544751992E-10 4.826614802E-12
 8.986160159E-02 -3.594680942E-10 3.546378191E-10 4.830240374E-12
 9.264458716E-02 -3.596356546E-10 3.548018268E-10 4.833820410E-12
 9.551376104E-02 -3.598047138E-10 3.549674166E-10 4.837318480E-12
 9.847179055E-02 -3.599756604E-10 3.551349215E-10 4.840740656E-12
 1.015214324E-01 -3.601481335E-10 3.553040362E-10 4.844106453E-12
 1.046655178E-01 -3.603227716E-10 3.554753714E-10 4.847397223E-12
 1.079069749E-01 -3.604996024E-10 3.556489270E-10 4.850679320E-12
 1.112488210E-01 -3.606780152E-10 3.558241202E-10 4.853867308E-12
 1.146941632E-01 -3.608590649E-10 3.560020612E-10 4.857035347E-12
 1.182462052E-01 -3.610416965E-10 3.561816120E-10 4.860095833E-12
 1.219082549E-01 -3.612258825E-10 3.563627171E-10 4.863167594E-12
 1.256837100E-01 -3.614108735E-10 3.565447104E-10 4.866157390E-12
 1.295761019E-01 -3.615876487E-10 3.567186546E-10 4.868983255E-12
 1.335890293E-01 -3.617782185E-10 3.569062823E-10 4.871947030E-12
 1.377262473E-01 -3.619699540E-10 3.570950757E-10 4.874871340E-12
 1.419915855E-01 -3.621598021E-10 3.572820650E-10 4.877718455E-12
 1.463890225E-01 -3.623487621E-10 3.574682217E-10 4.880516130E-12
 1.509226412E-01 -3.625372225E-10 3.576539620E-10 4.883272172E-12
 1.555966735E-01 -3.627249889E-10 3.578390362E-10 4.885984412E-12
 1.604154557E-01 -3.629120060E-10 3.580233610E-10 4.888646779E-12
 1.653834581E-01 -3.630975798E-10 3.582063257E-10 4.891263176E-12
 1.705053449E-01 -3.632813494E-10 3.583875141E-10 4.893853118E-12
 1.757858396E-01 -3.634629542E-10 3.585665653E-10 4.896384079E-12
 1.812298745E-01 -3.636418666E-10 3.587430353E-10 4.898868203E-12
 1.868425012E-01 -3.638176982E-10 3.589163966E-10 4.901292913E-12
 1.926289499E-01 -3.639896995E-10 3.590860387E-10 4.903658209E-12
 1.985946149E-01 -3.641572321E-10 3.592512676E-10 4.905950212E-12
 2.047450244E-01 -3.643187141E-10 3.594105846E-10 4.908149408E-12
 2.110859156E-01 -3.644798074E-10 3.595694853E-10 4.910341665E-12
 2.176231891E-01 -3.646313529E-10 3.597189491E-10 4.912396444E-12
 2.243629098E-01 -3.647756264E-10 3.598612797E-10 4.914349743E-12
 2.313113511E-01 -3.649124614E-10 3.599962550E-10 4.916205897E-12
 2.384749949E-01 -3.650409697E-10 3.601230425E-10 4.917933248E-12
 2.458604872E-01 -3.651603186E-10 3.602407816E-10 4.919544373E-12
 2.534747124E-01 -3.652696756E-10 3.603486676E-10 4.921012382E-12
 2.613247335E-01 -3.653680414E-10 3.604456733E-10 4.922338578E-12
 2.694178820E-01 -3.654544167E-10 3.605309384E-10 4.923495639E-12
 2.777616680E-01 -3.655278580E-10 3.606033805E-10 4.924485732E-12
 2.863638699E-01 -3.655873659E-10 3.606620558E-10 4.925280669E-12
 2.952324748E-01 -3.656319691E-10 3.607060761E-10 4.925879583E-12
 3.043757379E-01 -3.656605019E-10 3.607342480E-10 4.926258186E-12
 3.138021529E-01 -3.656718817E-10 3.607454890E-10 4.926410842E-12
 3.235205114E-01 -3.656649983E-10 3.607386612E-10 4.926312396E-12
 3.335398436E-01 -3.656387138E-10 3.607127652E-10 4.925959380E-12
 3.438694775E-01 -3.655919456E-10 3.606666077E-10 4.925324038E-12
 3.545189798E-01 -3.655235281E-10 3.605991061E-10 4.924402466E-12
 3.654983342E-01 -3.654324066E-10 3.605092336E-10 4.923171679E-12
 3.768177032E-01 -3.653175540E-10 3.603959353E-10 4.921623872E-12
 3.884876370E-01 -3.651779157E-10 3.602581844E-10 4.919740830E-12
 4.005189836E-01 -3.650126035E-10 3.600950926E-10 4.917513011E-12
 4.129229188E-01 -3.648207014E-10 3.599057996E-10 4.914926105E-12
 4.257110059E-01 -3.646014879E-10 3.596895282E-10 4.911972305E-12
 4.388951659E-01 -3.643543522E-10 3.594456954E-10 4.908640768E-12
 4.524875879E-01 -3.640787394E-10 3.591738018E-10 4.904926292E-12
 4.665009975E-01 -3.637743440E-10 3.588735142E-10 4.900824538E-12
 4.809483886E-01 -3.634410828E-10 3.585447494E-10 4.896329869E-12
 4.958432019E-01 -3.630789835E-10 3.581875352E-10 4.891452694E-12
 5.111992955E-01 -3.626884626E-10 3.578022878E-10 4.886183472E-12
 5.270310044E-01 -3.622701028E-10 3.573895346E-10 4.880549957E-12
 5.433530211E-01 -3.618250699E-10 3.569504969E-10 4.874540008E-12
 5.601804852E-01 -3.613542521E-10 3.564860629E-10 4.868206966E-12
 5.775290728E-01 -3.608596755E-10 3.559981199E-10 4.861515704E-12
 5.954149961E-01 -3.603433107E-10 3.554886940E-10 4.854584183E-12
 6.138547659E-01 -3.598078502E-10 3.549605332E-10 4.847316125E-12
 6.328656673E-01 -3.592561526E-10 3.544161908E-10 4.839943550E-12
 6.524653435E-01 -3.586919650E-10 3.538597471E-10 4.832230536E-12
 6.726719737E-01 -3.581187291E-10 3.532940884E-10 4.824654998E-12
 6.935044527E-01 -3.575419127E-10 3.527252657E-10 4.816647081E-12
 7.149820328E-01 -3.569660123E-10 3.521567760E-10 4.809228970E-12
 7.371248007E-01 -3.563996043E-10 3.515985836E-10 4.801040641E-12
 7.599533200E-01 -3.558469075E-10 3.510525481E-10 4.794354150E-12
 7.834888697E-01 -3.553170536E-10 3.505311319E-10 4.785932935E-12
 8.077532649E-01 -3.548060457E-10 3.500250645E-10 4.780983769E-12
 8.327691555E-01 -3.543329796E-10 3.495611300E-10 4.771823128E-12
 8.585597277E-01 -3.538930538E-10 3.491224532E-10 4.770613592E-12
 8.851490617E-01 -3.535300941E-10 3.487714839E-10 4.758649204E-12
 9.125618339E-01 -3.532509008E-10 3.484858235E-10 4.765062910E-12
 9.408236146E-01 -3.530690462E-10 3.483176525E-10 4.751362932E-12
 9.699606299E-01 -3.529000148E-10 3.481476774E-10 4.752351290E-12
 1.000000000E+00 -3.527053649E-10 3.479482258E-10 4.757138693E-12
ZONE T="SA-RC-QCR, X=0.97008"
 0.000000000E+00 0.000000000E+00 0.000000000E+00 0.000000000E+00
 4.999999987E-07 4.407889418E-12 -4.407897224E-12 7.476394212E-18
 1.000465204E-06 7.065729946E-11 -7.065737578E-11 7.471635276E-17
 1.501861107E-06 3.588103425E-10 -3.588100372E-10 -2.851890053E-16
 2.004654107E-06 1.138938388E-09 -1.138939054E-09 6.541110821E-16
 2.509312253E-06 2.796111120E-09 -2.796109788E-09 -1.181451825E-15
 3.016304618E-06 5.837508699E-09 -5.837510475E-09 1.762540779E-15
 3.526103228E-06 1.090168844E-08 -1.090168578E-08 -2.447501913E-15
 4.039182386E-06 1.877026001E-08 -1.877026179E-08 2.958530654E-15
 4.556018666E-06 3.038194762E-08 -3.038194407E-08 -3.646266350E-15
 5.077094102E-06 4.684952160E-08 -4.684952515E-08 3.807482978E-15
 5.602892543E-06 6.947944087E-08 -6.947944087E-08 -4.524290115E-15
 6.133903298E-06 9.979496696E-08 -9.979497406E-08 4.075369430E-15
 6.670620678E-06 1.395625446E-07 -1.395625304E-07 -5.085349070E-15
 7.213543540E-06 1.908222629E-07 -1.908222629E-07 3.685453059E-15
 7.763177564E-06 2.559224583E-07 -2.559224583E-07 -5.526840853E-15
 8.320033885E-06 3.375591007E-07 -3.375591007E-07 2.606187395E-15
 8.884630006E-06 4.388203365E-07 -4.388203365E-07 -6.165573575E-15
 9.457491615E-06 5.632367674E-07 -5.632367674E-07 7.525418692E-16
 1.003915168E-05 7.148379382E-07 -7.148379382E-07 -7.397689300E-15
 1.063015134E-05 8.982159443E-07 -8.982159443E-07 -2.075564028E-15
 1.123103993E-05 1.118596174E-06 -1.118596174E-06 -9.691396923E-15
 1.184237772E-05 1.381916832E-06 -1.381916832E-06 -6.221944465E-15
 1.246473221E-05 1.694916023E-06 -1.694916023E-06 -1.358684215E-14
 1.309868276E-05 2.065231001E-06 -2.065231001E-06 -1.216629845E-14
 1.374481872E-05 2.501502877E-06 -2.501502877E-06 -1.968099857E-14
 1.440374217E-05 3.013498372E-06 -3.013498372E-06 -2.046531381E-14
 1.507606521E-05 3.612235560E-06 -3.612235560E-06 -2.854321461E-14
 1.576241448E-05 4.310125860E-06 -4.310125860E-06 -3.159176073E-14
 1.646342571E-05 5.121125469E-06 -5.121125469E-06 -4.049842737E-14
 1.717975465E-05 6.060896339E-06 -6.060896339E-06 -4.561485196E-14
 1.791206523E-05 7.146979442E-06 -7.146978987E-06 -5.516660533E-14
 1.866104139E-05 8.398971659E-06 -8.398971659E-06 -6.151742120E-14
 1.942737617E-05 9.838713595E-06 -9.838713595E-06 -7.058215774E-14
 2.021178625E-05 1.149047603E-05 -1.149047603E-05 -7.602897939E-14
 2.101499740E-05 1.338114180E-05 -1.338114180E-05 -8.162110446E-14
 2.183776087E-05 1.554038499E-05 -1.554038499E-05 -8.155647923E-14
 2.268083881E-05 1.800082828E-05 -1.800082828E-05 -7.736617336E-14
 2.354501703E-05 2.079816295E-05 -2.079816295E-05 -6.292453266E-14
 2.443110134E-05 2.397125354E-05 -2.397125354E-05 -3.711794598E-14
 2.533991210E-05 2.756216054E-05 -2.756216054E-05 7.508786988E-15
 2.627229696E-05 3.161609493E-05 -3.161609493E-05 7.532362456E-14
 2.722912359E-05 3.618129267E-05 -3.618129267E-05 1.762015555E-13
 2.821128328E-05 4.130874004E-05 -4.130874004E-05 3.184934142E-13
 2.921968553E-05 4.705178435E-05 -4.705178799E-05 5.154056977E-13
 3.025527258E-05 5.346555918E-05 -5.346555918E-05 7.796043000E-13
 3.131900667E-05 6.060619489E-05 -6.060619853E-05 1.127717602E-12
 3.241187733E-05 6.852985825E-05 -6.852986553E-05 1.575816084E-12
 3.353489956E-05 7.729149365E-05 -7.729149365E-05 2.142231921E-12
 3.468912109E-05 8.694337885E-05 -8.694337885E-05 2.843065193E-12
 3.587561514E-05 9.753337508E-05 -9.753337508E-05 3.693389344E-12
 3.709548400E-05 1.091030499E-04 -1.091030499E-04 4.702469317E-12
 3.834985910E-05 1.216855526E-04 -1.216855526E-04 5.873053346E-12
 3.963991549E-05 1.353034459E-04 -1.353034459E-04 7.197007313E-12
 4.096685007E-05 1.499664650E-04 -1.499664795E-04 8.653942146E-12
 4.233189611E-05 1.656695385E-04 -1.656695531E-04 1.020731850E-11
 4.373632328E-05 1.823908533E-04 -1.823908678E-04 1.180455299E-11
 4.518143760E-05 2.000905515E-04 -2.000905515E-04 1.337689595E-11
 4.666858513E-05 2.187098144E-04 -2.187098289E-04 1.484261325E-11
 4.819914830E-05 2.381707745E-04 -2.381707891E-04 1.611172654E-11
 4.977455319E-05 2.583771129E-04 -2.583771420E-04 1.709449249E-11
 5.139626228E-05 2.792156884E-04 -2.792157175E-04 1.771043208E-11
 5.306578896E-05 3.005586332E-04 -3.005586623E-04 1.789955510E-11
 5.478467938E-05 3.222666855E-04 -3.222666855E-04 1.763174329E-11
 5.655453788E-05 3.441927547E-04 -3.441927838E-04 1.691517933E-11
 5.837701246E-05 3.661860246E-04 -3.661860537E-04 1.580151288E-11
 6.025379116E-05 3.880963486E-04 -3.880963777E-04 1.438339985E-11