# Planar shear case, y=0
VARIABLES = "X"
"Y"
"U Velocity"
zone, t="CFL3D"
 0.000000000E+00 0.000000000E+00 5.018742085E-01
 7.821894437E-02 0.000000000E+00 5.018036962E-01
 1.568456888E-01 0.000000000E+00 5.016596317E-01
 2.358823568E-01 0.000000000E+00 5.015140772E-01
 3.153310716E-01 0.000000000E+00 5.013790131E-01
 3.951940238E-01 0.000000000E+00 5.012601614E-01
 4.754733145E-01 0.000000000E+00 5.011585355E-01
 5.561711788E-01 0.000000000E+00 5.010736585E-01
 6.372897029E-01 0.000000000E+00 5.010033250E-01
 7.188312411E-01 0.000000000E+00 5.009456277E-01
 8.007978201E-01 0.000000000E+00 5.008978844E-01
 8.831917644E-01 0.000000000E+00 5.008584261E-01
 9.660152793E-01 0.000000000E+00 5.008254647E-01
 1.049270511E+00 0.000000000E+00 5.007977486E-01
 1.132959962E+00 0.000000000E+00 5.007742047E-01
 1.217085600E+00 0.000000000E+00 5.007539988E-01
 1.301649928E+00 0.000000000E+00 5.007362366E-01
 1.386654973E+00 0.000000000E+00 5.007207990E-01
 1.472103357E+00 0.000000000E+00 5.007072687E-01
 1.557997227E+00 0.000000000E+00 5.006951690E-01
 1.644338846E+00 0.000000000E+00 5.006844401E-01
 1.731130600E+00 0.000000000E+00 5.006746650E-01
 1.818374872E+00 0.000000000E+00 5.006657243E-01
 1.906073928E+00 0.000000000E+00 5.006576180E-01
 1.994230270E+00 0.000000000E+00 5.006499887E-01
 2.082846165E+00 0.000000000E+00 5.006428957E-01
 2.171924114E+00 0.000000000E+00 5.006364584E-01
 2.261466503E+00 0.000000000E+00 5.006303787E-01
 2.351475716E+00 0.000000000E+00 5.006247759E-01
 2.441954136E+00 0.000000000E+00 5.006194115E-01
 2.532904387E+00 0.000000000E+00 5.006142855E-01
 2.624328852E+00 0.000000000E+00 5.006093383E-01
 2.716229677E+00 0.000000000E+00 5.006043911E-01
 2.808609962E+00 0.000000000E+00 5.005995631E-01
 2.901471615E+00 0.000000000E+00 5.005952120E-01
 2.994817495E+00 0.000000000E+00 5.005911589E-01
 3.088649988E+00 0.000000000E+00 5.005873442E-01
 3.182971954E+00 0.000000000E+00 5.005835891E-01
 3.277785301E+00 0.000000000E+00 5.005800128E-01
 3.373093128E+00 0.000000000E+00 5.005764961E-01
 3.468897820E+00 0.000000000E+00 5.005729198E-01
 3.565201998E+00 0.000000000E+00 5.005695224E-01
 3.662008286E+00 0.000000000E+00 5.005663037E-01
 3.759319305E+00 0.000000000E+00 5.005632043E-01
 3.857137680E+00 0.000000000E+00 5.005601645E-01
 3.955466032E+00 0.000000000E+00 5.005571842E-01
 4.054306984E+00 0.000000000E+00 5.005542636E-01
 4.153663158E+00 0.000000000E+00 5.005513430E-01
 4.253537178E+00 0.000000000E+00 5.005481839E-01
 4.353932381E+00 0.000000000E+00 5.005451441E-01
 4.454850674E+00 0.000000000E+00 5.005423427E-01
 4.556295395E+00 0.000000000E+00 5.005396605E-01
 4.658268452E+00 0.000000000E+00 5.005370378E-01
 4.760773659E+00 0.000000000E+00 5.005344748E-01
 4.863812923E+00 0.000000000E+00 5.005319118E-01
 4.967389584E+00 0.000000000E+00 5.005292892E-01
 5.071506500E+00 0.000000000E+00 5.005266666E-01
 5.176166058E+00 0.000000000E+00 5.005240440E-01
 5.281371117E+00 0.000000000E+00 5.005214810E-01
 5.387124538E+00 0.000000000E+00 5.005190969E-01
 5.493429661E+00 0.000000000E+00 5.005167127E-01
 5.600288868E+00 0.000000000E+00 5.005143285E-01
 5.707705021E+00 0.000000000E+00 5.005118251E-01
 5.815681458E+00 0.000000000E+00 5.005091429E-01
 5.924220562E+00 0.000000000E+00 5.005063415E-01
 6.033325672E+00 0.000000000E+00 5.005034804E-01
 6.142999649E+00 0.000000000E+00 5.005008578E-01
 6.253245354E+00 0.000000000E+00 5.004983544E-01
 6.364065647E+00 0.000000000E+00 5.004959702E-01
 6.475464344E+00 0.000000000E+00 5.004935861E-01
 6.587443352E+00 0.000000000E+00 5.004912019E-01
 6.700006008E+00 0.000000000E+00 5.004888177E-01
 6.813155651E+00 0.000000000E+00 5.004861951E-01
 6.926895618E+00 0.000000000E+00 5.004835725E-01
 7.041227818E+00 0.000000000E+00 5.004811287E-01
 7.156156540E+00 0.000000000E+00 5.004786849E-01
 7.271684647E+00 0.000000000E+00 5.004762411E-01
 7.387814999E+00 0.000000000E+00 5.004737973E-01
 7.504550457E+00 0.000000000E+00 5.004712939E-01
 7.621894836E+00 0.000000000E+00 5.004687905E-01
 7.739850521E+00 0.000000000E+00 5.004659295E-01
 7.858421803E+00 0.000000000E+00 5.004630089E-01
 7.977611065E+00 0.000000000E+00 5.004603863E-01
 8.097421646E+00 0.000000000E+00 5.004579425E-01
 8.217856407E+00 0.000000000E+00 5.004553795E-01
 8.338919640E+00 0.000000000E+00 5.004528761E-01
 8.460614204E+00 0.000000000E+00 5.004503131E-01
 8.582942963E+00 0.000000000E+00 5.004477501E-01
 8.705908775E+00 0.000000000E+00 5.004449487E-01
 8.829516411E+00 0.000000000E+00 5.004421473E-01
 8.953768730E+00 0.000000000E+00 5.004395247E-01
 9.078668594E+00 0.000000000E+00 5.004369617E-01
 9.204219818E+00 0.000000000E+00 5.004343987E-01
 9.330425262E+00 0.000000000E+00 5.004317760E-01
 9.457288742E+00 0.000000000E+00 5.004290938E-01
 9.584813118E+00 0.000000000E+00 5.004262924E-01
 9.713003159E+00 0.000000000E+00 5.004231334E-01
 9.841861725E+00 0.000000000E+00 5.004200339E-01
 9.971391678E+00 0.000000000E+00 5.004171729E-01
 1.010159683E+01 0.000000000E+00 5.004143715E-01
 1.023248100E+01 0.000000000E+00 5.004116893E-01
 1.036404705E+01 0.000000000E+00 5.004088879E-01
 1.049629974E+01 0.000000000E+00 5.004062057E-01
 1.062924099E+01 0.000000000E+00 5.004038215E-01
 1.076287651E+01 0.000000000E+00 5.004004836E-01
 1.089720821E+01 0.000000000E+00 5.003914833E-01
 1.103223991E+01 0.000000000E+00 5.003673434E-01
 1.116797638E+01 0.000000000E+00 5.003178120E-01
 1.130441952E+01 0.000000000E+00 5.002356768E-01
 1.144157505E+01 0.000000000E+00 5.001167059E-01
 1.157944489E+01 0.000000000E+00 4.999585450E-01
 1.171803379E+01 0.000000000E+00 4.997595549E-01
 1.185734463E+01 0.000000000E+00 4.995188713E-01
 1.199738312E+01 0.000000000E+00 4.992368221E-01
 1.213815022E+01 0.000000000E+00 4.989141524E-01
 1.227965260E+01 0.000000000E+00 4.985514283E-01
 1.242189217E+01 0.000000000E+00 4.981496632E-01
 1.256487274E+01 0.000000000E+00 4.977101386E-01
 1.270859909E+01 0.000000000E+00 4.972342551E-01
 1.285307503E+01 0.000000000E+00 4.967235029E-01
 1.299830437E+01 0.000000000E+00 4.961792827E-01
 1.314428997E+01 0.000000000E+00 4.956033528E-01
 1.329103756E+01 0.000000000E+00 4.949974120E-01
 1.343855000E+01 0.000000000E+00 4.943629503E-01
 1.358683109E+01 0.000000000E+00 4.937014580E-01
 1.373588562E+01 0.000000000E+00 4.930143654E-01
 1.388571739E+01 0.000000000E+00 4.923030734E-01
 1.403633022E+01 0.000000000E+00 4.915688634E-01
 1.418772793E+01 0.000000000E+00 4.908135831E-01
 1.433991528E+01 0.000000000E+00 4.900380671E-01
 1.449289608E+01 0.000000000E+00 4.892438352E-01
 1.464667416E+01 0.000000000E+00 4.884322882E-01
 1.480125427E+01 0.000000000E+00 4.876044095E-01
 1.495664024E+01 0.000000000E+00 4.867613018E-01
 1.511283588E+01 0.000000000E+00 4.859038889E-01
 1.526984692E+01 0.000000000E+00 4.850332737E-01
 1.542767525E+01 0.000000000E+00 4.841501117E-01
 1.558632755E+01 0.000000000E+00 4.832555950E-01
 1.574580669E+01 0.000000000E+00 4.823506773E-01
 1.590611649E+01 0.000000000E+00 4.814361632E-01
 1.606726265E+01 0.000000000E+00 4.805126488E-01
 1.622924995E+01 0.000000000E+00 4.795809686E-01
 1.639208031E+01 0.000000000E+00 4.786418080E-01
 1.655575943E+01 0.000000000E+00 4.776957631E-01
 1.672029305E+01 0.000000000E+00 4.767432213E-01
 1.688568306E+01 0.000000000E+00 4.757851958E-01
 1.705193710E+01 0.000000000E+00 4.748224616E-01
 1.721905708E+01 0.000000000E+00 4.738553464E-01
 1.738704872E+01 0.000000000E+00 4.728842676E-01
 1.755591583E+01 0.000000000E+00 4.719097912E-01
 1.772566223E+01 0.000000000E+00 4.709323049E-01
 1.789629555E+01 0.000000000E+00 4.699522555E-01
 1.806781769E+01 0.000000000E+00 4.689698517E-01
 1.824023438E+01 0.000000000E+00 4.679857492E-01
 1.841354942E+01 0.000000000E+00 4.670005143E-01
 1.858776665E+01 0.000000000E+00 4.660142362E-01
 1.876289368E+01 0.000000000E+00 4.650273323E-01
 1.893893433E+01 0.000000000E+00 4.640400410E-01
 1.911589241E+01 0.000000000E+00 4.630526304E-01
 1.929377365E+01 0.000000000E+00 4.620653391E-01
 1.947258186E+01 0.000000000E+00 4.610784054E-01
 1.965232086E+01 0.000000000E+00 4.600922465E-01
 1.983299828E+01 0.000000000E+00 4.591072202E-01
 2.001461792E+01 0.000000000E+00 4.581236839E-01
 2.019718361E+01 0.000000000E+00 4.571415484E-01
 2.038070107E+01 0.000000000E+00 4.561610818E-01
 2.056517601E+01 0.000000000E+00 4.551824331E-01
 2.075061226E+01 0.000000000E+00 4.542058110E-01
 2.093701553E+01 0.000000000E+00 4.532311857E-01
 2.112438965E+01 0.000000000E+00 4.522589445E-01
 2.131274223E+01 0.000000000E+00 4.512893260E-01
 2.150207520E+01 0.000000000E+00 4.503223896E-01
 2.169239616E+01 0.000000000E+00 4.493582249E-01
 2.188371086E+01 0.000000000E+00 4.483969808E-01
 2.207602119E+01 0.000000000E+00 4.474387169E-01
 2.226933479E+01 0.000000000E+00 4.464835823E-01
 2.246365547E+01 0.000000000E+00 4.455314279E-01
 2.265898895E+01 0.000000000E+00 4.445826411E-01
 2.285534286E+01 0.000000000E+00 4.436375797E-01
 2.305271912E+01 0.000000000E+00 4.426961243E-01
 2.325112343E+01 0.000000000E+00 4.417582750E-01
 2.345056343E+01 0.000000000E+00 4.408241212E-01
 2.365104294E+01 0.000000000E+00 4.398937225E-01
 2.385256767E+01 0.000000000E+00 4.389671385E-01
 2.405514336E+01 0.000000000E+00 4.380442798E-01
 2.425877380E+01 0.000000000E+00 4.371254146E-01
 2.446346664E+01 0.000000000E+00 4.362106621E-01
 2.466922760E+01 0.000000000E+00 4.353000820E-01
 2.487606049E+01 0.000000000E+00 4.343935549E-01
 2.508397102E+01 0.000000000E+00 4.334910810E-01
 2.529296684E+01 0.000000000E+00 4.325927496E-01
 2.550305176E+01 0.000000000E+00 4.316984713E-01
 2.571423149E+01 0.000000000E+00 4.308089912E-01
 2.592651367E+01 0.000000000E+00 4.299235344E-01
 2.613990211E+01 0.000000000E+00 4.290421307E-01
 2.635440254E+01 0.000000000E+00 4.281654060E-01
 2.657002068E+01 0.000000000E+00 4.272929728E-01
 2.678676414E+01 0.000000000E+00 4.264250696E-01
 2.700463676E+01 0.000000000E+00 4.255615473E-01
 2.722364616E+01 0.000000000E+00 4.247024357E-01
 2.744379616E+01 0.000000000E+00 4.238476157E-01
 2.766509438E+01 0.000000000E+00 4.229972661E-01
 2.788754654E+01 0.000000000E+00 4.221515357E-01
 2.811115837E+01 0.000000000E+00 4.213102758E-01
 2.833593559E+01 0.000000000E+00 4.204734564E-01
 2.856188583E+01 0.000000000E+00 4.196411073E-01
 2.878901291E+01 0.000000000E+00 4.188132584E-01
 2.901732445E+01 0.000000000E+00 4.179898500E-01
 2.924682617E+01 0.000000000E+00 4.171707034E-01
 2.947752571E+01 0.000000000E+00 4.163561165E-01
 2.970942688E+01 0.000000000E+00 4.155461788E-01
 2.994253731E+01 0.000000000E+00 4.147407711E-01
 3.017686272E+01 0.000000000E+00 4.139398634E-01
 3.041241074E+01 0.000000000E+00 4.131433964E-01
 3.064918518E+01 0.000000000E+00 4.123514295E-01
 3.088719559E+01 0.000000000E+00 4.115639031E-01
 3.112644577E+01 0.000000000E+00 4.107806385E-01
 3.136694336E+01 0.000000000E+00 4.100018740E-01
 3.160869598E+01 0.000000000E+00 4.092276394E-01
 3.185170746E+01 0.000000000E+00 4.084579051E-01
 3.209598541E+01 0.000000000E+00 4.076924920E-01
 3.234154129E+01 0.000000000E+00 4.069315195E-01
 3.258837128E+01 0.000000000E+00 4.061748683E-01
 3.283649445E+01 0.000000000E+00 4.054224491E-01
 3.308590698E+01 0.000000000E+00 4.046745896E-01
 3.333662033E+01 0.000000000E+00 4.039309621E-01
 3.358864212E+01 0.000000000E+00 4.031916261E-01
 3.384197617E+01 0.000000000E+00 4.024567902E-01
 3.409663010E+01 0.000000000E+00 4.017261863E-01
 3.435261536E+01 0.000000000E+00 4.009999633E-01
 3.460993195E+01 0.000000000E+00 4.002779424E-01
 3.486859131E+01 0.000000000E+00 3.995602131E-01
 3.512860107E+01 0.000000000E+00 3.988465369E-01
 3.538996124E+01 0.000000000E+00 3.981370926E-01
 3.565268707E+01 0.000000000E+00 3.974319696E-01
 3.591678619E+01 0.000000000E+00 3.967310488E-01
 3.618225861E+01 0.000000000E+00 3.960342407E-01
 3.644911575E+01 0.000000000E+00 3.953415453E-01
 3.671736145E+01 0.000000000E+00 3.946529925E-01
 3.698700714E+01 0.000000000E+00 3.939684927E-01
 3.725806046E+01 0.000000000E+00 3.932879567E-01
 3.753052521E+01 0.000000000E+00 3.926115036E-01
 3.780441284E+01 0.000000000E+00 3.919391632E-01
 3.807972717E+01 0.000000000E+00 3.912709057E-01
 3.835647583E+01 0.000000000E+00 3.906066418E-01
 3.863466644E+01 0.000000000E+00 3.899463117E-01
 3.891431046E+01 0.000000000E+00 3.892899752E-01
 3.919541168E+01 0.000000000E+00 3.886375725E-01
 3.947797775E+01 0.000000000E+00 3.879889548E-01
 3.976201630E+01 0.000000000E+00 3.873442411E-01
 4.004753494E+01 0.000000000E+00 3.867034614E-01
 4.033454514E+01 0.000000000E+00 3.860665560E-01
 4.062304688E+01 0.000000000E+00 3.854334354E-01
 4.091305923E+01 0.000000000E+00 3.848040402E-01
 4.120457840E+01 0.000000000E+00 3.841784298E-01
 4.149761963E+01 0.000000000E+00 3.835564852E-01
 4.179218674E+01 0.000000000E+00 3.829387724E-01
 4.208829117E+01 0.000000000E+00 3.823246062E-01
 4.238594055E+01 0.000000000E+00 3.817137778E-01
 4.268513870E+01 0.000000000E+00 3.811067343E-01
 4.298590088E+01 0.000000000E+00 3.805033863E-01
 4.328822708E+01 0.000000000E+00 3.799036741E-01
 4.359213257E+01 0.000000000E+00 3.793075979E-01
 4.389762115E+01 0.000000000E+00 3.787150979E-01
 4.420470047E+01 0.000000000E+00 3.781260848E-01
 4.451338196E+01 0.000000000E+00 3.775406480E-01
 4.482367325E+01 0.000000000E+00 3.769587278E-01
 4.513558578E+01 0.000000000E+00 3.763803840E-01
 4.544911957E+01 0.000000000E+00 3.758054376E-01
 4.576428986E+01 0.000000000E+00 3.752339780E-01
 4.608110046E+01 0.000000000E+00 3.746658862E-01
 4.639956665E+01 0.000000000E+00 3.741011918E-01
 4.671969223E+01 0.000000000E+00 3.735399246E-01
 4.704148483E+01 0.000000000E+00 3.729819655E-01
 4.736495972E+01 0.000000000E+00 3.724273443E-01
 4.769011688E+01 0.000000000E+00 3.718761206E-01
 4.801697159E+01 0.000000000E+00 3.713281453E-01
 4.834552765E+01 0.000000000E+00 3.707835078E-01
 4.867579651E+01 0.000000000E+00 3.702420890E-01
 4.900778961E+01 0.000000000E+00 3.697039187E-01
 4.934151459E+01 0.000000000E+00 3.691689074E-01
 4.967697525E+01 0.000000000E+00 3.686371148E-01
 5.001418686E+01 0.000000000E+00 3.681084514E-01
 5.035315704E+01 0.000000000E+00 3.675829768E-01
 5.069389725E+01 0.000000000E+00 3.670606017E-01
 5.103641129E+01 0.000000000E+00 3.665413558E-01
 5.138071060E+01 0.000000000E+00 3.660251498E-01
 5.172680283E+01 0.000000000E+00 3.655119836E-01
 5.207470322E+01 0.000000000E+00 3.650020957E-01
 5.242441559E+01 0.000000000E+00 3.644951284E-01
 5.277595139E+01 0.000000000E+00 3.639910221E-01
 5.312931824E+01 0.000000000E+00 3.634899259E-01
 5.348453140E+01 0.000000000E+00 3.629918694E-01
 5.384159470E+01 0.000000000E+00 3.624966741E-01
 5.420051956E+01 0.000000000E+00 3.620044887E-01
 5.456131363E+01 0.000000000E+00 3.615151942E-01
 5.492398834E+01 0.000000000E+00 3.610287309E-01
 5.528855896E+01 0.000000000E+00 3.605451882E-01
 5.565502548E+01 0.000000000E+00 3.600644469E-01
 5.602340317E+01 0.000000000E+00 3.595865667E-01
 5.639370346E+01 0.000000000E+00 3.591114283E-01
 5.676593399E+01 0.000000000E+00 3.586391509E-01
 5.714010620E+01 0.000000000E+00 3.581695855E-01
 5.751622772E+01 0.000000000E+00 3.577027619E-01
 5.789431000E+01 0.000000000E+00 3.572387397E-01
 5.827436066E+01 0.000000000E+00 3.567773998E-01
 5.865639496E+01 0.000000000E+00 3.563186824E-01
 5.904042435E+01 0.000000000E+00 3.558626771E-01
 5.942645264E+01 0.000000000E+00 3.554092944E-01
 5.981449509E+01 0.000000000E+00 3.549586236E-01
 6.020455933E+01 0.000000000E+00 3.545105159E-01
 6.059665680E+01 0.000000000E+00 3.540649712E-01
 6.099079895E+01 0.000000000E+00 3.536220789E-01
 6.138699722E+01 0.000000000E+00 3.531817794E-01
 6.178525925E+01 0.000000000E+00 3.527439535E-01
 6.218559647E+01 0.000000000E+00 3.523086309E-01
 6.258802414E+01 0.000000000E+00 3.518758416E-01
 6.299254608E+01 0.000000000E+00 3.514454961E-01
 6.339918137E+01 0.000000000E+00 3.510176837E-01
 6.380793381E+01 0.000000000E+00 3.505923450E-01
 6.421881866E+01 0.000000000E+00 3.501695693E-01
 6.463184357E+01 0.000000000E+00 3.497491479E-01
 6.504702759E+01 0.000000000E+00 3.493310511E-01
 6.546437073E+01 0.000000000E+00 3.489152789E-01
 6.588388824E+01 0.000000000E+00 3.485019505E-01
 6.630559540E+01 0.000000000E+00 3.480909467E-01
 6.672949982E+01 0.000000000E+00 3.476822972E-01
 6.715561676E+01 0.000000000E+00 3.472759426E-01
 6.758395386E+01 0.000000000E+00 3.468720019E-01
 6.801452637E+01 0.000000000E+00 3.464702964E-01
 6.844734192E+01 0.000000000E+00 3.460708857E-01
 6.888241577E+01 0.000000000E+00 3.456736803E-01
 6.931975555E+01 0.000000000E+00 3.452787101E-01
 6.975937653E+01 0.000000000E+00 3.448860049E-01
 7.020128632E+01 0.000000000E+00 3.444954753E-01
 7.064550781E+01 0.000000000E+00 3.441071808E-01
 7.109204102E+01 0.000000000E+00 3.437211215E-01
 7.154090118E+01 0.000000000E+00 3.433372378E-01
 7.199209595E+01 0.000000000E+00 3.429554105E-01
 7.244564819E+01 0.000000000E+00 3.425756991E-01
 7.290156555E+01 0.000000000E+00 3.421981335E-01
 7.335986328E+01 0.000000000E+00 3.418226838E-01
 7.382054901E+01 0.000000000E+00 3.414492905E-01
 7.428363037E+01 0.000000000E+00 3.410779834E-01
 7.474913025E+01 0.000000000E+00 3.407088220E-01
 7.521705627E+01 0.000000000E+00 3.403416574E-01
 7.568742371E+01 0.000000000E+00 3.399764895E-01
 7.616024780E+01 0.000000000E+00 3.396133482E-01
 7.663552856E+01 0.000000000E+00 3.392522037E-01
 7.711328888E+01 0.000000000E+00 3.388930857E-01
 7.759354401E+01 0.000000000E+00 3.385359347E-01
 7.807630157E+01 0.000000000E+00 3.381807506E-01
 7.856156921E+01 0.000000000E+00 3.378275335E-01
 7.904937744E+01 0.000000000E+00 3.374762535E-01
 7.953971863E+01 0.000000000E+00 3.371269107E-01
 8.003262329E+01 0.000000000E+00 3.367793858E-01
 8.052809906E+01 0.000000000E+00 3.364338279E-01
 8.102615356E+01 0.000000000E+00 3.360900581E-01
 8.152680206E+01 0.000000000E+00 3.357481658E-01
 8.203006744E+01 0.000000000E+00 3.354081810E-01
 8.253594971E+01 0.000000000E+00 3.350700438E-01
 8.304447937E+01 0.000000000E+00 3.347337842E-01
 8.355564880E+01 0.000000000E+00 3.343992233E-01
 8.406948853E+01 0.000000000E+00 3.340665102E-01
 8.458601379E+01 0.000000000E+00 3.337356150E-01
 8.510522461E+01 0.000000000E+00 3.334064782E-01
 8.562714386E+01 0.000000000E+00 3.330790997E-01
 8.615177917E+01 0.000000000E+00 3.327535093E-01
 8.667915344E+01 0.000000000E+00 3.324296474E-01
 8.720928192E+01 0.000000000E+00 3.321075737E-01
 8.774217224E+01 0.000000000E+00 3.317871690E-01
 8.827783203E+01 0.000000000E+00 3.314684331E-01
 8.881629181E+01 0.000000000E+00 3.311514258E-01
 8.935755920E+01 0.000000000E+00 3.308360875E-01
 8.990164948E+01 0.000000000E+00 3.305223882E-01
 9.044857788E+01 0.000000000E+00 3.302103877E-01
 9.099835205E+01 0.000000000E+00 3.299000561E-01
 9.155099487E+01 0.000000000E+00 3.295913041E-01
 9.210652161E+01 0.000000000E+00 3.292842507E-01
 9.266493988E+01 0.000000000E+00 3.289787471E-01
 9.322627258E+01 0.000000000E+00 3.286748827E-01
 9.379052734E+01 0.000000000E+00 3.283725977E-01
 9.435772705E+01 0.000000000E+00 3.280719221E-01
 9.492788696E+01 0.000000000E+00 3.277728260E-01
 9.550101471E+01 0.000000000E+00 3.274752200E-01
 9.607713318E+01 0.000000000E+00 3.271791935E-01
 9.665625000E+01 0.000000000E+00 3.268847764E-01
 9.723839569E+01 0.000000000E+00 3.265917897E-01
 9.782357025E+01 0.000000000E+00 3.263003826E-01
 9.841179657E+01 0.000000000E+00 3.260104358E-01
 9.900308990E+01 0.000000000E+00 3.257219791E-01
 9.959746552E+01 0.000000000E+00 3.254349828E-01
 1.001949387E+02 0.000000000E+00 3.251495361E-01
 1.007955322E+02 0.000000000E+00 3.248655498E-01
 1.013992538E+02 0.000000000E+00 3.245829642E-01
 1.020061188E+02 0.000000000E+00 3.243018091E-01
 1.026161499E+02 0.000000000E+00 3.240221739E-01
 1.032293625E+02 0.000000000E+00 3.237439394E-01
 1.038457718E+02 0.000000000E+00 3.234671056E-01
 1.044653931E+02 0.000000000E+00 3.231917024E-01
 1.050882492E+02 0.000000000E+00 3.229177296E-01
 1.057143478E+02 0.000000000E+00 3.226451278E-01
 1.063437195E+02 0.000000000E+00 3.223738670E-01
 1.069763641E+02 0.000000000E+00 3.221040070E-01
 1.076123047E+02 0.000000000E+00 3.218354881E-01
 1.082515717E+02 0.000000000E+00 3.215683103E-01
 1.088941650E+02 0.000000000E+00 3.213025033E-01
 1.095401077E+02 0.000000000E+00 3.210380077E-01
 1.101894150E+02 0.000000000E+00 3.207748532E-01
 1.108421097E+02 0.000000000E+00 3.205130100E-01
 1.114982147E+02 0.000000000E+00 3.202524781E-01
 1.121577301E+02 0.000000000E+00 3.199932575E-01
 1.128206863E+02 0.000000000E+00 3.197353482E-01
 1.134871063E+02 0.000000000E+00 3.194786906E-01
 1.141569901E+02 0.000000000E+00 3.192232847E-01
 1.148303757E+02 0.000000000E+00 3.189691901E-01
 1.155072632E+02 0.000000000E+00 3.187163174E-01
 1.161876907E+02 0.000000000E+00 3.184646964E-01
 1.168716583E+02 0.000000000E+00 3.182143569E-01
 1.175591888E+02 0.000000000E+00 3.179652095E-01
 1.182503128E+02 0.000000000E+00 3.177173436E-01
 1.189450302E+02 0.000000000E+00 3.174706101E-01
 1.196433792E+02 0.000000000E+00 3.172250986E-01
 1.203453598E+02 0.000000000E+00 3.169808090E-01
 1.210510025E+02 0.000000000E+00 3.167376816E-01
 1.217603302E+02 0.000000000E+00 3.164957464E-01
 1.224733505E+02 0.000000000E+00 3.162550330E-01
 1.231900864E+02 0.000000000E+00 3.160154223E-01
 1.239105682E+02 0.000000000E+00 3.157770336E-01
 1.246347961E+02 0.000000000E+00 3.155397475E-01
 1.253628082E+02 0.000000000E+00 3.153036535E-01
 1.260946121E+02 0.000000000E+00 3.150686622E-01
 1.268302307E+02 0.000000000E+00 3.148348629E-01
 1.275696793E+02 0.000000000E+00 3.146021366E-01
 1.283129883E+02 0.000000000E+00 3.143705428E-01
 1.290601807E+02 0.000000000E+00 3.141400516E-01
 1.298112488E+02 0.000000000E+00 3.139106631E-01
 1.305662537E+02 0.000000000E+00 3.136823475E-01
 1.313251801E+02 0.000000000E+00 3.134551644E-01
 1.320880737E+02 0.000000000E+00 3.132290542E-01
 1.328549347E+02 0.000000000E+00 3.130039871E-01
 1.336257935E+02 0.000000000E+00 3.127799928E-01
 1.344006805E+02 0.000000000E+00 3.125570714E-01
 1.351796112E+02 0.000000000E+00 3.123352230E-01
 1.359625854E+02 0.000000000E+00 3.121144176E-01
 1.367496490E+02 0.000000000E+00 3.118946552E-01
 1.375408173E+02 0.000000000E+00 3.116759062E-01
 1.383361206E+02 0.000000000E+00 3.114582002E-01
 1.391355591E+02 0.000000000E+00 3.112414777E-01
 1.399391632E+02 0.000000000E+00 3.110257983E-01
 1.407469635E+02 0.000000000E+00 3.108111024E-01
 1.415589752E+02 0.000000000E+00 3.105975091E-01
 1.423752136E+02 0.000000000E+00 3.103847802E-01
 1.431957092E+02 0.000000000E+00 3.101731241E-01
 1.440204926E+02 0.000000000E+00 3.099624515E-01
 1.448495636E+02 0.000000000E+00 3.097527325E-01
 1.456829681E+02 0.000000000E+00 3.095439672E-01
 1.465207062E+02 0.000000000E+00 3.093361557E-01
 1.473628235E+02 0.000000000E+00 3.091293871E-01
 1.482093201E+02 0.000000000E+00 3.089234829E-01
 1.490602417E+02 0.000000000E+00 3.087185323E-01
 1.499155884E+02 0.000000000E+00 3.085145652E-01
 1.507753906E+02 0.000000000E+00 3.083115220E-01
 1.516396942E+02 0.000000000E+00 3.081094325E-01
 1.525084839E+02 0.000000000E+00 3.079082370E-01
 1.533818207E+02 0.000000000E+00 3.077079654E-01
 1.542597046E+02 0.000000000E+00 3.075085878E-01
 1.551421509E+02 0.000000000E+00 3.073101640E-01
 1.560292206E+02 0.000000000E+00 3.071126044E-01
 1.569208984E+02 0.000000000E+00 3.069159389E-01
 1.578172302E+02 0.000000000E+00 3.067201972E-01
 1.587182465E+02 0.000000000E+00 3.065253496E-01
 1.596239471E+02 0.000000000E+00 3.063313663E-01
 1.605343628E+02 0.000000000E+00 3.061382174E-01
 1.614495392E+02 0.000000000E+00 3.059459627E-01
 1.623694916E+02 0.000000000E+00 3.057546020E-01
 1.632942200E+02 0.000000000E+00 3.055640459E-01
 1.642237854E+02 0.000000000E+00 3.053743839E-01
 1.651581879E+02 0.000000000E+00 3.051855564E-01
 1.660974731E+02 0.000000000E+00 3.049975634E-01
 1.670416412E+02 0.000000000E+00 3.048104346E-01
 1.679907379E+02 0.000000000E+00 3.046241105E-01
 1.689447937E+02 0.000000000E+00 3.044386506E-01
 1.699038086E+02 0.000000000E+00 3.042539954E-01
 1.708678284E+02 0.000000000E+00 3.040701747E-01
 1.718368683E+02 0.000000000E+00 3.038871586E-01
 1.728109741E+02 0.000000000E+00 3.037049472E-01
 1.737901459E+02 0.000000000E+00 3.035235107E-01
 1.747744293E+02 0.000000000E+00 3.033428788E-01
 1.757638397E+02 0.000000000E+00 3.031630516E-01
 1.767584076E+02 0.000000000E+00 3.029840291E-01
 1.777581635E+02 0.000000000E+00 3.028057814E-01
 1.787631378E+02 0.000000000E+00 3.026283383E-01
 1.797733459E+02 0.000000000E+00 3.024516404E-01
 1.807888184E+02 0.000000000E+00 3.022757173E-01
 1.818095856E+02 0.000000000E+00 3.021005690E-01
 1.828356781E+02 0.000000000E+00 3.019261956E-01
 1.838671265E+02 0.000000000E+00 3.017525971E-01
 1.849039459E+02 0.000000000E+00 3.015797734E-01
 1.859461670E+02 0.000000000E+00 3.014077544E-01
 1.869938202E+02 0.000000000E+00 3.012365103E-01
 1.880469360E+02 0.000000000E+00 3.010661006E-01
 1.891055603E+02 0.000000000E+00 3.008965850E-01
 1.901696777E+02 0.000000000E+00 3.007279634E-01
 1.912393646E+02 0.000000000E+00 3.005603552E-01
 1.923146057E+02 0.000000000E+00 3.003939688E-01
 1.933954773E+02 0.000000000E+00 3.002289832E-01
 1.944819641E+02 0.000000000E+00 3.000659943E-01
 1.955741272E+02 0.000000000E+00 2.999054790E-01
 1.966719818E+02 0.000000000E+00 2.997487783E-01
 1.977755585E+02 0.000000000E+00 2.996024489E-01
 1.988848877E+02 0.000000000E+00 2.994591892E-01
 2.000000000E+02 0.000000000E+00 2.993852198E-01
zone,t="FUN3D"
   -0.100000000E+02    0.341225170E-06    0.463892715E+00
   -0.992182541E+01    0.341225170E-06    0.463984863E+00
   -0.984365177E+01    0.341225170E-06    0.464327582E+00
   -0.976547813E+01    0.341225170E-06    0.464770225E+00
   -0.968730640E+01    0.341225170E-06    0.465283652E+00
   -0.960913467E+01    0.341225170E-06    0.465805958E+00
   -0.953096390E+01    0.341225170E-06    0.466317953E+00
   -0.945279407E+01    0.341225170E-06    0.466806684E+00
   -0.937462521E+01    0.341225170E-06    0.467269967E+00
   -0.929645634E+01    0.341225170E-06    0.467709102E+00
   -0.921828937E+01    0.341225170E-06    0.468126896E+00
   -0.914012241E+01    0.341225170E-06    0.468526721E+00
   -0.906195641E+01    0.341225170E-06    0.468911573E+00
   -0.898379135E+01    0.341225170E-06    0.469284143E+00
   -0.890562630E+01    0.341225170E-06    0.469646615E+00
   -0.882746315E+01    0.341225170E-06    0.470000772E+00
   -0.874930000E+01    0.341225170E-06    0.470348039E+00
   -0.867113781E+01    0.341225170E-06    0.470689543E+00
   -0.859297657E+01    0.341225170E-06    0.471026174E+00
   -0.851481628E+01    0.341225170E-06    0.471358642E+00
   -0.843665600E+01    0.341225170E-06    0.471687511E+00
   -0.835849667E+01    0.341225170E-06    0.472013229E+00
   -0.828033924E+01    0.341225170E-06    0.472336152E+00
   -0.820218182E+01    0.341225170E-06    0.472656583E+00
   -0.812402534E+01    0.341225170E-06    0.472974757E+00
   -0.804586887E+01    0.341225170E-06    0.473290875E+00
   -0.796771383E+01    0.341225170E-06    0.473605095E+00
   -0.788955975E+01    0.341225170E-06    0.473917558E+00
   -0.781140614E+01    0.341225170E-06    0.474228381E+00
   -0.773325348E+01    0.341225170E-06    0.474537664E+00
   -0.765510130E+01    0.341225170E-06    0.474845493E+00
   -0.757695007E+01    0.341225170E-06    0.475151941E+00
   -0.749879980E+01    0.341225170E-06    0.475457074E+00
   -0.742065048E+01    0.341225170E-06    0.475760950E+00
   -0.734250164E+01    0.341225170E-06    0.476063622E+00
   -0.726435328E+01    0.341225170E-06    0.476365137E+00
   -0.718620634E+01    0.341225170E-06    0.476665531E+00
   -0.710805988E+01    0.341225170E-06    0.476964848E+00
   -0.702991390E+01    0.341225170E-06    0.477263119E+00
   -0.695176887E+01    0.341225170E-06    0.477560376E+00
   -0.687362480E+01    0.341225170E-06    0.477856648E+00
   -0.679548168E+01    0.341225170E-06    0.478151960E+00
   -0.671733904E+01    0.341225170E-06    0.478446340E+00
   -0.663919735E+01    0.341225170E-06    0.478739809E+00
   -0.656105614E+01    0.341225170E-06    0.479032389E+00
   -0.648291588E+01    0.341225170E-06    0.479324100E+00
   -0.640477657E+01    0.341225170E-06    0.479614961E+00
   -0.632663775E+01    0.341225170E-06    0.479904990E+00
   -0.624849987E+01    0.341225170E-06    0.480194204E+00
   -0.617036295E+01    0.341225170E-06    0.480482618E+00
   -0.609222651E+01    0.341225170E-06    0.480770250E+00
   -0.601409101E+01    0.341225170E-06    0.481057112E+00
   -0.593595600E+01    0.341225170E-06    0.481343220E+00
   -0.585782242E+01    0.341225170E-06    0.481628584E+00
   -0.577968883E+01    0.341225170E-06    0.481913222E+00
   -0.570155668E+01    0.341225170E-06    0.482197142E+00
   -0.562342501E+01    0.341225170E-06    0.482480357E+00
   -0.554529428E+01    0.341225170E-06    0.482762879E+00
   -0.546716404E+01    0.341225170E-06    0.483044719E+00
   -0.538903475E+01    0.341225170E-06    0.483325887E+00
   -0.531090641E+01    0.341225170E-06    0.483606393E+00
   -0.523277855E+01    0.341225170E-06    0.483886248E+00
   -0.515465164E+01    0.341225170E-06    0.484165460E+00
   -0.507652521E+01    0.341225170E-06    0.484444041E+00
   -0.499840021E+01    0.341225170E-06    0.484721996E+00
   -0.492027521E+01    0.341225170E-06    0.484999338E+00
   -0.484215164E+01    0.341225170E-06    0.485276071E+00
   -0.476402855E+01    0.341225170E-06    0.485552207E+00
   -0.468590641E+01    0.341225170E-06    0.485827752E+00
   -0.460778475E+01    0.341225170E-06    0.486102717E+00
   -0.452966404E+01    0.341225170E-06    0.486377105E+00
   -0.445154428E+01    0.341225170E-06    0.486650926E+00
   -0.437342501E+01    0.341225170E-06    0.486924188E+00
   -0.429530668E+01    0.341225170E-06    0.487196897E+00
   -0.421718931E+01    0.341225170E-06    0.487469059E+00
   -0.413907242E+01    0.341225170E-06    0.487740683E+00
   -0.406095648E+01    0.341225170E-06    0.488011775E+00
   -0.398284101E+01    0.341225170E-06    0.488282341E+00
   -0.390472674E+01    0.341225170E-06    0.488552387E+00
   -0.382661295E+01    0.341225170E-06    0.488821921E+00
   -0.374850011E+01    0.341225170E-06    0.489090947E+00
   -0.367038798E+01    0.341225170E-06    0.489359472E+00