VARIABLES = "X","Y","mu_t"
ZONE T="CFL3D, SA-QCR2013, x=0.75"
 7.500000000E-01 5.000000075E-02 3.100827453E-04
 7.500000000E-01 5.000049621E-02 3.879248106E-04
 7.500000000E-01 5.000099167E-02 4.795559216E-04
 7.500000000E-01 5.000148714E-02 5.860055098E-04
 7.500000000E-01 5.000198260E-02 7.092061569E-04
 7.500000000E-01 5.000247806E-02 8.508359897E-04
 7.500000000E-01 5.000297725E-02 1.013920759E-03
 7.500000000E-01 5.000347644E-02 1.198321930E-03
 7.500000000E-01 5.000397563E-02 1.411410631E-03
 7.500000000E-01 5.000447854E-02 1.650877879E-03
 7.500000000E-01 5.000498146E-02 1.920837560E-03
 7.500000000E-01 5.000548810E-02 2.224408789E-03
 7.500000000E-01 5.000599846E-02 2.563638380E-03
 7.500000000E-01 5.000650883E-02 2.939585131E-03
 7.500000000E-01 5.000702292E-02 3.358544083E-03
 7.500000000E-01 5.000753701E-02 3.818729892E-03
 7.500000000E-01 5.000805855E-02 4.331732169E-03
 7.500000000E-01 5.000858009E-02 4.904268775E-03
 7.500000000E-01 5.000910535E-02 5.531318486E-03
 7.500000000E-01 5.000963807E-02 6.226805504E-03
 7.500000000E-01 5.001017079E-02 6.985481363E-03
 7.500000000E-01 5.001070723E-02 7.813454606E-03
 7.500000000E-01 5.001125112E-02 8.721179329E-03
 7.500000000E-01 5.001179874E-02 9.715596214E-03
 7.500000000E-01 5.001235008E-02 1.080789138E-02
 7.500000000E-01 5.001290515E-02 1.199859660E-02
 7.500000000E-01 5.001346767E-02 1.329600997E-02
 7.500000000E-01 5.001403391E-02 1.470099296E-02
 7.500000000E-01 5.001460761E-02 1.623347960E-02
 7.500000000E-01 5.001518503E-02 1.789103262E-02
 7.500000000E-01 5.001576990E-02 1.969628595E-02
 7.500000000E-01 5.001636222E-02 2.167126350E-02
 7.500000000E-01 5.001696199E-02 2.380896732E-02
 7.500000000E-01 5.001756549E-02 2.611260116E-02
 7.500000000E-01 5.001818016E-02 2.862213552E-02
 7.500000000E-01 5.001879856E-02 3.131406754E-02
 7.500000000E-01 5.001942441E-02 3.421736509E-02
 7.500000000E-01 5.002006143E-02 3.741106763E-02
 7.500000000E-01 5.002070591E-02 4.084031656E-02
 7.500000000E-01 5.002135783E-02 4.454044625E-02
 7.500000000E-01 5.002201721E-02 4.852097854E-02
 7.500000000E-01 5.002268776E-02 5.280837417E-02
 7.500000000E-01 5.002336577E-02 5.739804357E-02
 7.500000000E-01 5.002405494E-02 6.243081763E-02
 7.500000000E-01 5.002475157E-02 6.781326234E-02
 7.500000000E-01 5.002545938E-02 7.361263782E-02
 7.500000000E-01 5.002617836E-02 7.985273749E-02
 7.500000000E-01 5.002690852E-02 8.656205237E-02
 7.500000000E-01 5.002764612E-02 9.374321252E-02
 7.500000000E-01 5.002839863E-02 1.014938056E-01
 7.500000000E-01 5.002916232E-02 1.098997593E-01
 7.500000000E-01 5.002993718E-02 1.188884154E-01
 7.500000000E-01 5.003072321E-02 1.285089999E-01
 7.500000000E-01 5.003152043E-02 1.387932599E-01
 7.500000000E-01 5.003233254E-02 1.498309672E-01
 7.500000000E-01 5.003315955E-02 1.617271006E-01
 7.500000000E-01 5.003399774E-02 1.744676828E-01
 7.500000000E-01 5.003485084E-02 1.881771088E-01
 7.500000000E-01 5.003571883E-02 2.028521150E-01
 7.500000000E-01 5.003659800E-02 2.185052782E-01
 7.500000000E-01 5.003749579E-02 2.353105545E-01
 7.500000000E-01 5.003840849E-02 2.532167435E-01
 7.500000000E-01 5.003933236E-02 2.722460032E-01
 7.500000000E-01 5.004027858E-02 2.928740680E-01
 7.500000000E-01 5.004123598E-02 3.148205578E-01
 7.500000000E-01 5.004221201E-02 3.382451236E-01
 7.500000000E-01 5.004320666E-02 3.632656634E-01
 7.500000000E-01 5.004421622E-02 3.898296356E-01
 7.500000000E-01 5.004524812E-02 4.181845188E-01
 7.500000000E-01 5.004629493E-02 4.483162761E-01
 7.500000000E-01 5.004736036E-02 4.804348648E-01
 7.500000000E-01 5.004844442E-02 5.147367120E-01
 7.500000000E-01 5.004955083E-02 5.512870550E-01
 7.500000000E-01 5.005067587E-02 5.899996758E-01
 7.500000000E-01 5.005182326E-02 6.311430931E-01
 7.500000000E-01 5.005298927E-02 6.746866107E-01
 7.500000000E-01 5.005417764E-02 7.208173275E-01
 7.500000000E-01 5.005538836E-02 7.696477771E-01
 7.500000000E-01 5.005662143E-02 8.213120103E-01
 7.500000000E-01 5.005787686E-02 8.761908412E-01
 7.500000000E-01 5.005915835E-02 9.343014359E-01
 7.500000000E-01 5.006046221E-02 9.956014156E-01
 7.500000000E-01 5.006178841E-02 1.060002685E+00
 7.500000000E-01 5.006314442E-02 1.128134489E+00
 7.500000000E-01 5.006452277E-02 1.199755788E+00
 7.500000000E-01 5.006592721E-02 1.274940133E+00
 7.500000000E-01 5.006736144E-02 1.354086399E+00
 7.500000000E-01 5.006882176E-02 1.436963439E+00
 7.500000000E-01 5.007030815E-02 1.524246335E+00
 7.500000000E-01 5.007182434E-02 1.615561128E+00
 7.500000000E-01 5.007337034E-02 1.711245656E+00
 7.500000000E-01 5.007494614E-02 1.811280251E+00
 7.500000000E-01 5.007655174E-02 1.915702105E+00
 7.500000000E-01 5.007818714E-02 2.024466276E+00
 7.500000000E-01 5.007985607E-02 2.137879848E+00
 7.500000000E-01 5.008155853E-02 2.256053686E+00
 7.500000000E-01 5.008329079E-02 2.378626823E+00
 7.500000000E-01 5.008506030E-02 2.506138086E+00
 7.500000000E-01 5.008686334E-02 2.638154030E+00
 7.500000000E-01 5.008869991E-02 2.775347710E+00
 7.500000000E-01 5.009057745E-02 2.917401791E+00
 7.500000000E-01 5.009248853E-02 3.064150095E+00
 7.500000000E-01 5.009443685E-02 3.215708494E+00
 7.500000000E-01 5.009642243E-02 3.371831894E+00
 7.500000000E-01 5.009844899E-02 3.532865763E+00
 7.500000000E-01 5.010051653E-02 3.698733807E+00
 7.500000000E-01 5.010262504E-02 3.869270325E+00
 7.500000000E-01 5.010477081E-02 4.044113159E+00
 7.500000000E-01 5.010696501E-02 4.224039078E+00
 7.500000000E-01 5.010920018E-02 4.408177376E+00
 7.500000000E-01 5.011148006E-02 4.596755981E+00
 7.500000000E-01 5.011380464E-02 4.789691448E+00
 7.500000000E-01 5.011617392E-02 4.986916065E+00
 7.500000000E-01 5.011859536E-02 5.188665390E+00
 7.500000000E-01 5.012106150E-02 5.394473553E+00
 7.500000000E-01 5.012357607E-02 5.604089737E+00
 7.500000000E-01 5.012614280E-02 5.817664623E+00
 7.500000000E-01 5.012876168E-02 6.035300732E+00
 7.500000000E-01 5.013142899E-02 6.256482601E+00
 7.500000000E-01 5.013415590E-02 6.481788635E+00
 7.500000000E-01 5.013693124E-02 6.710235119E+00
 7.500000000E-01 5.013976619E-02 6.942528248E+00
 7.500000000E-01 5.014265701E-02 7.178091526E+00
 7.500000000E-01 5.014560372E-02 7.417004108E+00
 7.500000000E-01 5.014861375E-02 7.659636497E+00
 7.500000000E-01 5.015167966E-02 7.904986382E+00
 7.500000000E-01 5.015481263E-02 8.154040337E+00
 7.500000000E-01 5.015800521E-02 8.405918121E+00
 7.500000000E-01 5.016126111E-02 8.660840988E+00
 7.500000000E-01 5.016458407E-02 8.918783188E+00
 7.500000000E-01 5.016797408E-02 9.179876328E+00
 7.500000000E-01 5.017143115E-02 9.443655014E+00
 7.500000000E-01 5.017495900E-02 9.710367203E+00
 7.500000000E-01 5.017855763E-02 9.979981422E+00
 7.500000000E-01 5.018223077E-02 1.025274944E+01
 7.500000000E-01 5.018597469E-02 1.052817345E+01
 7.500000000E-01 5.018979684E-02 1.080673504E+01
 7.500000000E-01 5.019369721E-02 1.108807850E+01
 7.500000000E-01 5.019767210E-02 1.137209702E+01
 7.500000000E-01 5.020173267E-02 1.165946960E+01
 7.500000000E-01 5.020587146E-02 1.194934273E+01
 7.500000000E-01 5.021009594E-02 1.224226570E+01
 7.500000000E-01 5.021440238E-02 1.253799725E+01
 7.500000000E-01 5.021880195E-02 1.283709145E+01
 7.500000000E-01 5.022328719E-02 1.313892365E+01
 7.500000000E-01 5.022786185E-02 1.344377136E+01
 7.500000000E-01 5.023252964E-02 1.375176620E+01
 7.500000000E-01 5.023729429E-02 1.406286240E+01
 7.500000000E-01 5.024215579E-02 1.437709141E+01
 7.500000000E-01 5.024711415E-02 1.469448471E+01
 7.500000000E-01 5.025217310E-02 1.501524162E+01
 7.500000000E-01 5.025733262E-02 1.533902836E+01
 7.500000000E-01 5.026260018E-02 1.566634846E+01
 7.500000000E-01 5.026797205E-02 1.599698067E+01
 7.500000000E-01 5.027345568E-02 1.633101654E+01
 7.500000000E-01 5.027904734E-02 1.666825676E+01
 7.500000000E-01 5.028475448E-02 1.700934029E+01
 7.500000000E-01 5.029057711E-02 1.735375595E+01
 7.500000000E-01 5.029651895E-02 1.770176888E+01
 7.500000000E-01 5.030258000E-02 1.805341339E+01
 7.500000000E-01 5.030876398E-02 1.840876389E+01
 7.500000000E-01 5.031507462E-02 1.876787376E+01
 7.500000000E-01 5.032151192E-02 1.913075256E+01
 7.500000000E-01 5.032807961E-02 1.949732399E+01
 7.500000000E-01 5.033478141E-02 1.986791420E+01
 7.500000000E-01 5.034162104E-02 2.024250412E+01
 7.500000000E-01 5.034859851E-02 2.062088966E+01
 7.500000000E-01 5.035571754E-02 2.100339317E+01
 7.500000000E-01 5.036298186E-02 2.138990211E+01
 7.500000000E-01 5.037039518E-02 2.178046799E+01
 7.500000000E-01 5.037795752E-02 2.217511559E+01
 7.500000000E-01 5.038567260E-02 2.257383919E+01
 7.500000000E-01 5.039354786E-02 2.297690201E+01
 7.500000000E-01 5.040157959E-02 2.338392448E+01
 7.500000000E-01 5.040977523E-02 2.379515457E+01
 7.500000000E-01 5.041813850E-02 2.421069717E+01
 7.500000000E-01 5.042667314E-02 2.463057709E+01
 7.500000000E-01 5.043537915E-02 2.505463409E+01
 7.500000000E-01 5.044426396E-02 2.548307228E+01
 7.500000000E-01 5.045332760E-02 2.591572762E+01
 7.500000000E-01 5.046257749E-02 2.635279465E+01
 7.500000000E-01 5.047201365E-02 2.679410744E+01
 7.500000000E-01 5.048164353E-02 2.723985291E+01
 7.500000000E-01 5.049146712E-02 2.768980408E+01
 7.500000000E-01 5.050149187E-02 2.814414597E+01
 7.500000000E-01 5.051172152E-02 2.860292625E+01
 7.500000000E-01 5.052215979E-02 2.906597519E+01
 7.500000000E-01 5.053281039E-02 2.953346825E+01
 7.500000000E-01 5.054367334E-02 3.000499725E+01
 7.500000000E-01 5.055476353E-02 3.048117256E+01
 7.500000000E-01 5.056607723E-02 3.096146965E+01
 7.500000000E-01 5.057761818E-02 3.144595528E+01
 7.500000000E-01 5.058939755E-02 3.193480492E+01
 7.500000000E-01 5.060141534E-02 3.242780685E+01
 7.500000000E-01 5.061367899E-02 3.292502975E+01
 7.500000000E-01 5.062619224E-02 3.342659378E+01
 7.500000000E-01 5.063895881E-02 3.393211365E+01
 7.500000000E-01 5.065198615E-02 3.444171524E+01
 7.500000000E-01 5.066527799E-02 3.495544815E+01
 7.500000000E-01 5.067883804E-02 3.547302246E+01
 7.500000000E-01 5.069267750E-02 3.599467850E+01
 7.500000000E-01 5.070680007E-02 3.652034378E+01
 7.500000000E-01 5.072120577E-02 3.704969406E+01
 7.500000000E-01 5.073590949E-02 3.758297348E+01
 7.500000000E-01 5.075091124E-02 3.812007141E+01
 7.500000000E-01 5.076621473E-02 3.866057205E+01
 7.500000000E-01 5.078183487E-02 3.920490646E+01
 7.500000000E-01 5.079777166E-02 3.975263977E+01
 7.500000000E-01 5.081402883E-02 4.030381012E+01
 7.500000000E-01 5.083062127E-02 4.085846329E+01
 7.500000000E-01 5.084755272E-02 4.141637802E+01
 7.500000000E-01 5.086482689E-02 4.197742462E+01
 7.500000000E-01 5.088245124E-02 4.254145813E+01
 7.500000000E-01 5.090043694E-02 4.310861588E+01
 7.500000000E-01 5.091878772E-02 4.367869186E+01
 7.500000000E-01 5.093751475E-02 4.425157928E+01
 7.500000000E-01 5.095662177E-02 4.482717133E+01
 7.500000000E-01 5.097611621E-02 4.540535736E+01
 7.500000000E-01 5.099600926E-02 4.598593140E+01
 7.500000000E-01 5.101630464E-02 4.656885529E+01
 7.500000000E-01 5.103701726E-02 4.715413284E+01
 7.500000000E-01 5.105815083E-02 4.774143600E+01
 7.500000000E-01 5.107971281E-02 4.833070755E+01
 7.500000000E-01 5.110171810E-02 4.892193985E+01
 7.500000000E-01 5.112416670E-02 4.951469040E+01
 7.500000000E-01 5.114707351E-02 5.010900497E+01
 7.500000000E-01 5.117044970E-02 5.070474625E+01
 7.500000000E-01 5.119429901E-02 5.130173874E+01
 7.500000000E-01 5.121863633E-02 5.189978027E+01
 7.500000000E-01 5.124346912E-02 5.249874878E+01
 7.500000000E-01 5.126880854E-02 5.309857941E+01
 7.500000000E-01 5.129466206E-02 5.369887924E+01
 7.500000000E-01 5.132104084E-02 5.429951859E+01
 7.500000000E-01 5.134795979E-02 5.490048599E+01
 7.500000000E-01 5.137542635E-02 5.550146484E+01
 7.500000000E-01 5.140345171E-02 5.610224533E+01
 7.500000000E-01 5.143205076E-02 5.670271683E+01
 7.500000000E-01 5.146122724E-02 5.730258560E+01
 7.500000000E-01 5.149100348E-02 5.790176773E+01
 7.500000000E-01 5.152138323E-02 5.849993896E+01
 7.500000000E-01 5.155238137E-02 5.909691620E+01
 7.500000000E-01 5.158401281E-02 5.969247818E+01
 7.500000000E-01 5.161628872E-02 6.028644562E+01
 7.500000000E-01 5.164922029E-02 6.087854767E+01
 7.500000000E-01 5.168282241E-02 6.146855164E+01
 7.500000000E-01 5.171710998E-02 6.205622101E+01
 7.500000000E-01 5.175209790E-02 6.264135742E+01
 7.500000000E-01 5.178779736E-02 6.322361755E+01
 7.500000000E-01 5.182422325E-02 6.380281448E+01
 7.500000000E-01 5.186139047E-02 6.437863922E+01
 7.500000000E-01 5.189931393E-02 6.495082855E+01
 7.500000000E-01 5.193801224E-02 6.551914215E+01
 7.500000000E-01 5.197750032E-02 6.608328247E+01
 7.500000000E-01 5.201778933E-02 6.664293671E+01
 7.500000000E-01 5.205890164E-02 6.719786835E+01
 7.500000000E-01 5.210085213E-02 6.774769592E+01
 7.500000000E-01 5.214365572E-02 6.829212952E+01
 7.500000000E-01 5.218733102E-02 6.883088684E+01
 7.500000000E-01 5.223189294E-02 6.936354828E+01
 7.500000000E-01 5.227736756E-02 6.988988495E+01
 7.500000000E-01 5.232376605E-02 7.040947723E+01
 7.500000000E-01 5.237111077E-02 7.092200470E+01
 7.500000000E-01 5.241942033E-02 7.142706299E+01
 7.500000000E-01 5.246871337E-02 7.192425537E+01
 7.500000000E-01 5.251901224E-02 7.241320038E+01
 7.500000000E-01 5.257033557E-02 7.289349365E+01
 7.500000000E-01 5.262270197E-02 7.336470032E+01
 7.500000000E-01 5.267613754E-02 7.382638550E+01
 7.500000000E-01 5.273066089E-02 7.427805328E+01
 7.500000000E-01 5.278629437E-02 7.471925354E+01
 7.500000000E-01 5.284306034E-02 7.514945984E+01
 7.500000000E-01 5.290098488E-02 7.556817627E+01
 7.500000000E-01 5.296008661E-02 7.597483826E+01
 7.500000000E-01 5.302039534E-02 7.636888885E+01
 7.500000000E-01 5.308193341E-02 7.674972534E+01
 7.500000000E-01 5.314472318E-02 7.711670685E+01
 7.500000000E-01 5.320879072E-02 7.746919250E+01
 7.500000000E-01 5.327416584E-02 7.780649567E+01
 7.500000000E-01 5.334087461E-02 7.812788391E+01
 7.500000000E-01 5.340893939E-02 7.843258667E+01
 7.500000000E-01 5.347838998E-02 7.871981812E+01
 7.500000000E-01 5.354925618E-02 7.898873901E+01
 7.500000000E-01 5.362156779E-02 7.923844910E+01
 7.500000000E-01 5.369535089E-02 7.946802521E+01
 7.500000000E-01 5.377063900E-02 7.967649078E+01
 7.500000000E-01 5.384745821E-02 7.986279297E+01
 7.500000000E-01 5.392584577E-02 8.002585602E+01
 7.500000000E-01 5.400582775E-02 8.016452026E+01
 7.500000000E-01 5.408744141E-02 8.027758789E+01
 7.500000000E-01 5.417071283E-02 8.036376953E+01
 7.500000000E-01 5.425568670E-02 8.042173004E+01
 7.500000000E-01 5.434238911E-02 8.045005798E+01
 7.500000000E-01 5.443085730E-02 8.044727325E+01
 7.500000000E-01 5.452112854E-02 8.041181183E+01
 7.500000000E-01 5.461324006E-02 8.034201813E+01
 7.500000000E-01 5.470722541E-02 8.023619080E+01
 7.500000000E-01 5.480312556E-02 8.009251404E+01
 7.500000000E-01 5.490098149E-02 7.990908051E+01
 7.500000000E-01 5.500083044E-02 7.968391418E+01
 7.500000000E-01 5.510271341E-02 7.941493988E+01
 7.500000000E-01 5.520667136E-02 7.909999084E+01
 7.500000000E-01 5.531274900E-02 7.873677826E+01
 7.500000000E-01 5.542098731E-02 7.832295227E+01
 7.500000000E-01 5.553143099E-02 7.785603333E+01
 7.500000000E-01 5.564412102E-02 7.733347321E+01
 7.500000000E-01 5.575910956E-02 7.675257111E+01
 7.500000000E-01 5.587644130E-02 7.611056519E+01
 7.500000000E-01 5.599616468E-02 7.540458679E+01
 7.500000000E-01 5.611832440E-02 7.463166809E+01
 7.500000000E-01 5.624297261E-02 7.378873444E+01
 7.500000000E-01 5.637016147E-02 7.287260437E+01
 7.500000000E-01 5.649994314E-02 7.188002014E+01
 7.500000000E-01 5.663236603E-02 7.080763245E+01
 7.500000000E-01 5.676748976E-02 6.965196228E+01
 7.500000000E-01 5.690536276E-02 6.840957642E+01
 7.500000000E-01 5.704604834E-02 6.707680511E+01
 7.500000000E-01 5.718959868E-02 6.565004730E+01
 7.500000000E-01 5.733607337E-02 6.412560272E+01
 7.500000000E-01 5.748553202E-02 6.249973679E+01
 7.500000000E-01 5.763803422E-02 6.076873016E+01
 7.500000000E-01 5.779364333E-02 5.892884445E+01
 7.500000000E-01 5.795242637E-02 5.697634506E+01
 7.500000000E-01 5.811443925E-02 5.490767288E+01
 7.500000000E-01 5.827975646E-02 5.271921921E+01
 7.500000000E-01 5.844844133E-02 5.040766525E+01
 7.500000000E-01 5.862056091E-02 4.796985245E+01
 7.500000000E-01 5.879618600E-02 4.540287018E+01
 7.500000000E-01 5.897539482E-02 4.270404053E+01
 7.500000000E-01 5.915825069E-02 3.987136841E+01
 7.500000000E-01 5.934483185E-02 3.690305328E+01
 7.500000000E-01 5.953521281E-02 3.379786301E+01
 7.500000000E-01 5.972947553E-02 3.055484200E+01
 7.500000000E-01 5.992769450E-02 2.717303085E+01
 7.500000000E-01 6.012995169E-02 2.365003395E+01
 7.500000000E-01 6.033632904E-02 1.997956467E+01
 7.500000000E-01 6.054691225E-02 1.614703751E+01
 7.500000000E-01 6.076178327E-02 1.213411808E+01
 7.500000000E-01 6.098103523E-02 8.011174202E+00
 7.500000000E-01 6.120475009E-02 4.241619587E+00
 7.500000000E-01 6.143302470E-02 1.699976802E+00
 7.500000000E-01 6.166595221E-02 6.037792563E-01
 7.500000000E-01 6.190362200E-02 2.911619246E-01
 7.500000000E-01 6.214613467E-02 2.128269672E-01
 7.500000000E-01 6.239358708E-02 1.924444735E-01
 7.500000000E-01 6.264608353E-02 1.872600764E-01
 7.500000000E-01 6.290372461E-02 1.862910688E-01
 7.500000000E-01 6.316661090E-02 1.865001470E-01
 7.500000000E-01 6.343485415E-02 1.870259345E-01
 7.500000000E-01 6.370855868E-02 1.876239628E-01
 7.500000000E-01 6.398784369E-02 1.882258505E-01
 7.500000000E-01 6.427282095E-02 1.888131201E-01
 7.500000000E-01 6.456360221E-02 1.893813163E-01
 7.500000000E-01 6.486030668E-02 1.899298579E-01
 7.500000000E-01 6.516305357E-02 1.904590875E-01
 7.500000000E-01 6.547196954E-02 1.909696758E-01
 7.500000000E-01 6.578718126E-02 1.914622635E-01
 7.500000000E-01 6.610881537E-02 1.919375360E-01
 7.500000000E-01 6.643699855E-02 1.923961490E-01
 7.500000000E-01 6.677187234E-02 1.928386986E-01
 7.500000000E-01 6.711356342E-02 1.932658255E-01
 7.500000000E-01 6.746221334E-02 1.936780810E-01
 7.500000000E-01 6.781797111E-02 1.940760612E-01
 7.500000000E-01 6.818097830E-02 1.944603175E-01
 7.500000000E-01 6.855138391E-02 1.948313415E-01
 7.500000000E-01 6.892932951E-02 1.951896846E-01
 7.500000000E-01 6.931497902E-02 1.955357939E-01
 7.500000000E-01 6.970848143E-02 1.958701909E-01
 7.500000000E-01 7.011000067E-02 1.961932927E-01
 7.500000000E-01 7.051970065E-02 1.965055615E-01
 7.500000000E-01 7.093774527E-02 1.968074143E-01
 7.500000000E-01 7.136431336E-02 1.970992684E-01
 7.500000000E-01 7.179956883E-02 1.973814964E-01
 7.500000000E-01 7.224369049E-02 1.976545155E-01
 7.500000000E-01 7.269686460E-02 1.979186684E-01
 7.500000000E-01 7.315926254E-02 1.981743127E-01
 7.500000000E-01 7.363108546E-02 1.984217912E-01
 7.500000000E-01 7.411251962E-02 1.986614317E-01
 7.500000000E-01 7.460376620E-02 1.988935471E-01
 7.500000000E-01 7.510501891E-02 1.991184354E-01
 7.500000000E-01 7.561648637E-02 1.993364096E-01
 7.500000000E-01 7.613836974E-02 1.995477229E-01
 7.500000000E-01 7.667088509E-02 1.997526586E-01
 7.500000000E-01 7.721424848E-02 1.999514699E-01
 7.500000000E-01 7.776868343E-02 2.001444250E-01
 7.500000000E-01 7.833441347E-02 2.003317475E-01
 7.500000000E-01 7.891167700E-02 2.005136758E-01
 7.500000000E-01 7.950069010E-02 2.006904185E-01
 7.500000000E-01 8.010170609E-02 2.008622289E-01
 7.500000000E-01 8.071497083E-02 2.010292709E-01
 7.500000000E-01 8.134072274E-02 2.011917531E-01
 7.500000000E-01 8.197923005E-02 2.013498694E-01
 7.500000000E-01 8.263073862E-02 2.015037984E-01
 7.500000000E-01 8.329552412E-02 2.016537189E-01
 7.500000000E-01 8.397385478E-02 2.017997950E-01
 7.500000000E-01 8.466600627E-02 2.019422054E-01
 7.500000000E-01 8.537225425E-02 2.020810694E-01
 7.500000000E-01 8.609288931E-02 2.022165656E-01
 7.500000000E-01 8.682820946E-02 2.023488283E-01
 7.500000000E-01 8.757851273E-02 2.024779916E-01
 7.500000000E-01 8.834409714E-02 2.026041895E-01
 7.500000000E-01 8.912528306E-02 2.027275413E-01
 7.500000000E-01 8.992238343E-02 2.028481811E-01
 7.500000000E-01 9.073571861E-02 2.029662132E-01
 7.500000000E-01 9.156563133E-02 2.030817419E-01
 7.500000000E-01 9.241244197E-02 2.031948864E-01
 7.500000000E-01 9.327650815E-02 2.033057362E-01
 7.500000000E-01 9.415818006E-02 2.034143955E-01
 7.500000000E-01 9.505781531E-02 2.035209537E-01
 7.500000000E-01 9.597577900E-02 2.036255151E-01
 7.500000000E-01 9.691244364E-02 2.037281394E-01
 7.500000000E-01 9.786818922E-02 2.038289160E-01
 7.500000000E-01 9.884340316E-02 2.039279193E-01
 7.500000000E-01 9.983849525E-02 2.040252388E-01
 7.500000000E-01 1.008538529E-01 2.041209340E-01
 7.500000000E-01 1.018898934E-01 2.042150795E-01
 7.500000000E-01 1.029470488E-01 2.043077201E-01
 7.500000000E-01 1.040257365E-01 2.043989301E-01
 7.500000000E-01 1.051264033E-01 2.044887692E-01
 7.500000000E-01 1.062494889E-01 2.045772821E-01
 7.500000000E-01 1.073954627E-01 2.046645284E-01
 7.500000000E-01 1.085647792E-01 2.047505528E-01
 7.500000000E-01 1.097579151E-01 2.048354149E-01
 7.500000000E-01 1.109753624E-01 2.049191594E-01
 7.500000000E-01 1.122176126E-01 2.050018013E-01
 7.500000000E-01 1.134851724E-01 2.050834000E-01
 7.500000000E-01 1.147785485E-01 2.051640004E-01
 7.500000000E-01 1.160982847E-01 2.052436322E-01
 7.500000000E-01 1.174449027E-01 2.053223252E-01
 7.500000000E-01 1.188189536E-01 2.054001093E-01
 7.500000000E-01 1.202210039E-01 2.054770142E-01
 7.500000000E-01 1.216516122E-01 2.055530697E-01
 7.500000000E-01 1.231113747E-01 2.056283057E-01
 7.500000000E-01 1.246008649E-01 2.057027370E-01
 7.500000000E-01 1.261207163E-01 2.057764083E-01
 7.500000000E-01 1.276715100E-01 2.058493048E-01
 7.500000000E-01 1.292539090E-01 2.059214711E-01
 7.500000000E-01 1.308685541E-01 2.059929371E-01
 7.500000000E-01 1.325160861E-01 2.060636878E-01
 7.500000000E-01 1.341971904E-01 2.061337531E-01
 7.500000000E-01 1.359125376E-01 2.062031627E-01
 7.500000000E-01 1.376628280E-01 2.062719017E-01
 7.500000000E-01 1.394487768E-01 2.063400000E-01
 7.500000000E-01 1.412711143E-01 2.064074725E-01
 7.500000000E-01 1.431305856E-01 2.064743042E-01
 7.500000000E-01 1.450279355E-01 2.065405399E-01
 7.500000000E-01 1.469639242E-01 2.066061497E-01
 7.500000000E-01 1.489393711E-01 2.066711634E-01
 7.500000000E-01 1.509550661E-01 2.067355812E-01
 7.500000000E-01 1.530118138E-01 2.067994177E-01
 7.500000000E-01 1.551104784E-01 2.068626583E-01
 7.500000000E-01 1.572518945E-01 2.069253176E-01
 7.500000000E-01 1.594369262E-01 2.069873959E-01
 7.500000000E-01 1.616664827E-01 2.070488930E-01
 7.500000000E-01 1.639414728E-01 2.071098238E-01
 7.500000000E-01 1.662627906E-01 2.071701735E-01
 7.500000000E-01 1.686314195E-01 2.072299570E-01
 7.500000000E-01 1.710482836E-01 2.072891593E-01
 7.500000000E-01 1.735143960E-01 2.073477805E-01
 7.500000000E-01 1.760307550E-01 2.074058354E-01
 7.500000000E-01 1.785983741E-01 2.074633092E-01
 7.500000000E-01 1.812183112E-01 2.075202167E-01
 7.500000000E-01 1.838916242E-01 2.075765282E-01
 7.500000000E-01 1.866193861E-01 2.076322585E-01
 7.500000000E-01 1.894027293E-01 2.076874077E-01
 7.500000000E-01 1.922427863E-01 2.077419758E-01
 7.500000000E-01 1.951406896E-01 2.077959478E-01
 7.500000000E-01 1.980976462E-01 2.078493237E-01
 7.500000000E-01 2.011148334E-01 2.079021037E-01
 7.500000000E-01 2.041934878E-01 2.079542875E-01
 7.500000000E-01 2.073348761E-01 2.080058753E-01
 7.500000000E-01 2.105402499E-01 2.080568522E-01
 7.500000000E-01 2.138109356E-01 2.081072032E-01
 7.500000000E-01 2.171482444E-01 2.081569582E-01
 7.500000000E-01 2.205535620E-01 2.082060874E-01
 7.500000000E-01 2.240282446E-01 2.082546055E-01
 7.500000000E-01 2.275737077E-01 2.083024830E-01
 7.500000000E-01 2.311914265E-01 2.083497494E-01
 7.500000000E-01 2.348828316E-01 2.083963901E-01
 7.500000000E-01 2.386494428E-01 2.084423900E-01
 7.500000000E-01 2.424927950E-01 2.084877640E-01
 7.500000000E-01 2.464144379E-01 2.085324973E-01
 7.500000000E-01 2.504159808E-01 2.085765898E-01
 7.500000000E-01 2.544990480E-01 2.086200267E-01
 7.500000000E-01 2.586653233E-01 2.086628377E-01
 7.500000000E-01 2.629164457E-01 2.087049931E-01
 7.500000000E-01 2.672542036E-01 2.087465078E-01
 7.500000000E-01 2.716802955E-01 2.087873667E-01
 7.500000000E-01 2.761965990E-01 2.088275850E-01
 7.500000000E-01 2.808049023E-01 2.088671476E-01
 7.500000000E-01 2.855070829E-01 2.089060545E-01
 7.500000000E-01 2.903050482E-01 2.089443207E-01
 7.500000000E-01 2.952007949E-01 2.089819312E-01
 7.500000000E-01 3.001962602E-01 2.090188861E-01
 7.500000000E-01 3.052935004E-01 2.090551853E-01
 7.500000000E-01 3.104945719E-01 2.090908587E-01
 7.500000000E-01 3.158016503E-01 2.091258615E-01
 7.500000000E-01 3.212168217E-01 2.091602236E-01
 7.500000000E-01 3.267422915E-01 2.091939598E-01
 7.500000000E-01 3.323803544E-01 2.092270404E-01
 7.500000000E-01 3.381333053E-01 2.092594802E-01
 7.500000000E-01 3.440034389E-01 2.092912793E-01
 7.500000000E-01 3.499931395E-01 2.093224674E-01
 7.500000000E-01 3.561049104E-01 2.093530148E-01
 7.500000000E-01 3.623411655E-01 2.093829215E-01
 7.500000000E-01 3.687044978E-01 2.094122171E-01
 7.500000000E-01 3.751974404E-01 2.094409019E-01
 7.500000000E-01 3.818227053E-01 2.094689757E-01
 7.500000000E-01 3.885829151E-01 2.094964385E-01
 7.500000000E-01 3.954808414E-01 2.095233053E-01
 7.500000000E-01 4.025193155E-01 2.095495611E-01
 7.500000000E-01 4.097011983E-01 2.095752507E-01
 7.500000000E-01 4.170293808E-01 2.096003294E-01
 7.500000000E-01 4.245068729E-01 2.096248418E-01
 7.500000000E-01 4.321366847E-01 2.096487731E-01
 7.500000000E-01 4.399219453E-01 2.096721530E-01
 7.500000000E-01 4.478658140E-01 2.096949667E-01
 7.500000000E-01 4.559715390E-01 2.097172290E-01
 7.500000000E-01 4.642423689E-01 2.097389549E-01
 7.500000000E-01 4.726817310E-01 2.097601444E-01
 7.500000000E-01 4.812930226E-01 2.097807974E-01
 7.500000000E-01 4.900797307E-01 2.098009288E-01
 7.500000000E-01 4.990454614E-01 2.098205537E-01
 7.500000000E-01 5.081938505E-01 2.098396719E-01
 7.500000000E-01 5.175286531E-01 2.098582983E-01
 7.500000000E-01 5.270535946E-01 2.098764181E-01
 7.500000000E-01 5.367726088E-01 2.098940760E-01
 7.500000000E-01 5.466895700E-01 2.099112421E-01
 7.500000000E-01 5.568086505E-01 2.099279463E-01
 7.500000000E-01 5.671338439E-01 2.099442035E-01
 7.500000000E-01 5.776693821E-01 2.099600136E-01
 7.500000000E-01 5.884196162E-01 2.099753916E-01
 7.500000000E-01 5.993887782E-01 2.099903226E-01
 7.500000000E-01 6.105814576E-01 2.100048512E-01
 7.500000000E-01 6.220021844E-01 2.100189477E-01
 7.500000000E-01 6.336556077E-01 2.100326568E-01
 7.500000000E-01 6.455463767E-01 2.100459635E-01
 7.500000000E-01 6.576794386E-01 2.100588828E-01
 7.500000000E-01 6.700596809E-01 2.100714296E-01
 7.500000000E-01 6.826921701E-01 2.100835890E-01
 7.500000000E-01 6.955819726E-01 2.100954056E-01
 7.500000000E-01 7.087343931E-01 2.101068497E-01
 7.500000000E-01 7.221547961E-01 2.101179659E-01
 7.500000000E-01 7.358485460E-01 2.101287395E-01
 7.500000000E-01 7.498213649E-01 2.101391852E-01
 7.500000000E-01 7.640787959E-01 2.101493031E-01
 7.500000000E-01 7.786266804E-01 2.101591229E-01
 7.500000000E-01 7.934709787E-01 2.101686299E-01
 7.500000000E-01 8.086177111E-01 2.101778388E-01
 7.500000000E-01 8.240730166E-01 2.101867646E-01
 7.500000000E-01 8.398432136E-01 2.101954073E-01
 7.500000000E-01 8.559346199E-01 2.102037668E-01
 7.500000000E-01 8.723539114E-01 2.102118731E-01
 7.500000000E-01 8.891077042E-01 2.102197111E-01
 7.500000000E-01 9.062028527E-01 2.102272958E-01
 7.500000000E-01 9.236462712E-01 2.102346420E-01
 7.500000000E-01 9.414450526E-01 2.102417499E-01
 7.500000000E-01 9.596064091E-01 2.102486193E-01
 7.500000000E-01 9.781377912E-01 2.102552652E-01
 7.500000000E-01 9.970467687E-01 2.102616876E-01
 7.500000000E-01 1.016340852E+00 2.102679014E-01
 7.500000000E-01 1.036028147E+00 2.102739215E-01
 7.500000000E-01 1.056116462E+00 2.102797180E-01
 7.500000000E-01 1.076614022E+00 2.102853507E-01
 7.500000000E-01 1.097529292E+00 2.102907747E-01
 7.500000000E-01 1.118870497E+00 2.102960199E-01
 7.500000000E-01 1.140646577E+00 2.103010714E-01
 7.500000000E-01 1.162866354E+00 2.103059739E-01
 7.500000000E-01 1.185538769E+00 2.103107125E-01
 7.500000000E-01 1.208673000E+00 2.103152722E-01
 7.500000000E-01 1.232278705E+00 2.103196830E-01
 7.500000000E-01 1.256365180E+00 2.103239447E-01
 7.500000000E-01 1.280942440E+00 2.103280574E-01
 7.500000000E-01 1.306020379E+00 2.103320211E-01
 7.500000000E-01 1.331609249E+00 2.103358656E-01
 7.500000000E-01 1.357719421E+00 2.103395611E-01
 7.500000000E-01 1.384361625E+00 2.103431374E-01
 7.500000000E-01 1.411546588E+00 2.103465796E-01
 7.500000000E-01 1.439285278E+00 2.103499025E-01
 7.500000000E-01 1.467589140E+00 2.103531063E-01
 7.500000000E-01 1.496469736E+00 2.103562057E-01
 7.500000000E-01 1.525938630E+00 2.103592008E-01
 7.500000000E-01 1.556007862E+00 2.103620768E-01
 7.500000000E-01 1.586689711E+00 2.103648484E-01
 7.500000000E-01 1.617996693E+00 2.103675306E-01
 7.500000000E-01 1.649941444E+00 2.103701234E-01
 7.500000000E-01 1.682536960E+00 2.103726119E-01
 7.500000000E-01 1.715796590E+00 2.103750110E-01
 7.500000000E-01 1.749733806E+00 2.103773206E-01
 7.500000000E-01 1.784362435E+00 2.103795558E-01
 7.500000000E-01 1.819696665E+00 2.103817165E-01
 7.500000000E-01 1.855750561E+00 2.103837878E-01
 7.500000000E-01 1.892539144E+00 2.103857845E-01
 7.500000000E-01 1.930077076E+00 2.103877068E-01
 7.500000000E-01 1.968379855E+00 2.103895545E-01
 7.500000000E-01 2.007462978E+00 2.103913426E-01
 7.500000000E-01 2.047342300E+00 2.103930712E-01
 7.500000000E-01 2.088034153E+00 2.103947252E-01
 7.500000000E-01 2.129554987E+00 2.103963196E-01
 7.500000000E-01 2.171921730E+00 2.103978544E-01
 7.500000000E-01 2.215151548E+00 2.103993446E-01
 7.500000000E-01 2.259262085E+00 2.104007602E-01
 7.500000000E-01 2.304271460E+00 2.104021311E-01
 7.500000000E-01 2.350197554E+00 2.104034573E-01
 7.500000000E-01 2.397059441E+00 2.104047239E-01
 7.500000000E-01 2.444876194E+00 2.104059458E-01
 7.500000000E-01 2.493666887E+00 2.104071081E-01
 7.500000000E-01 2.543451548E+00 2.104082406E-01
 7.500000000E-01 2.594250679E+00 2.104093283E-01
 7.500000000E-01 2.646084547E+00 2.104103565E-01
 7.500000000E-01 2.698974609E+00 2.104113698E-01