VARIABLES = "x"
"y"
"z"
"rho"
"u"
ZONE T="G4, diag, x=50, sorted"
    0.500000000E+02    0.392515068E-16    0.000000000E+00    0.104047298E+01    0.000000000E+00
    0.500000000E+02    0.177966904E-04    0.177966904E-04    0.104047298E+01    0.118264597E-04
    0.500000000E+02    0.370937887E-04    0.370937887E-04    0.104047298E+01    0.539508110E-04
    0.500000000E+02    0.580178094E-04    0.580178094E-04    0.104047298E+01    0.135896393E-03
    0.500000000E+02    0.807059187E-04    0.807059187E-04    0.104047298E+01    0.268577103E-03
    0.500000000E+02    0.105306797E-03    0.105306797E-03    0.104047298E+01    0.464984507E-03
    0.500000000E+02    0.131981797E-03    0.131981797E-03    0.104047298E+01    0.740679388E-03
    0.500000000E+02    0.160905707E-03    0.160905707E-03    0.104047298E+01    0.111432106E-02
    0.500000000E+02    0.192268199E-03    0.192268199E-03    0.104047298E+01    0.160827604E-02
    0.500000000E+02    0.226274802E-03    0.226274802E-03    0.104047298E+01    0.224933098E-02
    0.500000000E+02    0.263148395E-03    0.263148395E-03    0.104047298E+01    0.306953397E-02
    0.500000000E+02    0.303130801E-03    0.303130801E-03    0.104047406E+01    0.410718517E-02
    0.500000000E+02    0.346484099E-03    0.346484099E-03    0.104047406E+01    0.540801883E-02
    0.500000000E+02    0.393492490E-03    0.393492490E-03    0.104047501E+01    0.702658808E-02
    0.500000000E+02    0.444464094E-03    0.444464094E-03    0.104047596E+01    0.902791601E-02
    0.500000000E+02    0.499733025E-03    0.499733025E-03    0.104047799E+01    0.114894398E-01
    0.500000000E+02    0.559661596E-03    0.559661596E-03    0.104048097E+01    0.145033402E-01
    0.500000000E+02    0.624642707E-03    0.624642707E-03    0.104048502E+01    0.181792397E-01
    0.500000000E+02    0.695102324E-03    0.695102324E-03    0.104049206E+01    0.226474907E-01
    0.500000000E+02    0.771502207E-03    0.771502207E-03    0.104050195E+01    0.280630104E-01
    0.500000000E+02    0.854343292E-03    0.854343292E-03    0.104051602E+01    0.346098691E-01
    0.500000000E+02    0.944168714E-03    0.944168714E-03    0.104053903E+01    0.425067618E-01
    0.500000000E+02    0.104156695E-02    0.104156695E-02    0.104057205E+01    0.520133898E-01
    0.500000000E+02    0.114717695E-02    0.114717695E-02    0.104061997E+01    0.634381920E-01
    0.500000000E+02    0.126169098E-02    0.126169098E-02    0.104069102E+01    0.771470070E-01
    0.500000000E+02    0.138585898E-02    0.138585898E-02    0.104079401E+01    0.935729519E-01
    0.500000000E+02    0.152049598E-02    0.152049598E-02    0.104094398E+01    0.113225996E+00
    0.500000000E+02    0.166648405E-02    0.166648405E-02    0.104116094E+01    0.136700407E+00
    0.500000000E+02    0.182478002E-02    0.182478002E-02    0.104147506E+01    0.164673194E+00
    0.500000000E+02    0.199642195E-02    0.199642195E-02    0.104192698E+01    0.197882995E+00
    0.500000000E+02    0.218253490E-02    0.218253490E-02    0.104257202E+01    0.237068206E+00
    0.500000000E+02    0.238433806E-02    0.238433806E-02    0.104348302E+01    0.282836497E+00
    0.500000000E+02    0.260315603E-02    0.260315603E-02    0.104474902E+01    0.335443497E+00
    0.500000000E+02    0.284042093E-02    0.284042093E-02    0.104645896E+01    0.394505411E+00
    0.500000000E+02    0.309768994E-02    0.309768994E-02    0.104868603E+01    0.458767086E+00
    0.500000000E+02    0.337664993E-02    0.337664993E-02    0.105145097E+01    0.526126683E+00
    0.500000000E+02    0.367912790E-02    0.367912790E-02    0.105471098E+01    0.594034076E+00
    0.500000000E+02    0.400710711E-02    0.400710711E-02    0.105836701E+01    0.660112202E+00
    0.500000000E+02    0.436273916E-02    0.436273916E-02    0.106229305E+01    0.722662985E+00
    0.500000000E+02    0.474835280E-02    0.474835280E-02    0.106637096E+01    0.780835927E+00
    0.500000000E+02    0.516647706E-02    0.516647706E-02    0.107051599E+01    0.834502280E+00
    0.500000000E+02    0.561985420E-02    0.561985420E-02    0.107467794E+01    0.884008586E+00
    0.500000000E+02    0.611145422E-02    0.611145422E-02    0.107884204E+01    0.929943502E+00
    0.500000000E+02    0.664449995E-02    0.664449995E-02    0.108301198E+01    0.972973824E+00
    0.500000000E+02    0.722248619E-02    0.722248619E-02    0.108720899E+01    0.101374698E+01
    0.500000000E+02    0.784920156E-02    0.784920156E-02    0.109146202E+01    0.105284297E+01
    0.500000000E+02    0.852875598E-02    0.852875598E-02    0.109580100E+01    0.109075499E+01
    0.500000000E+02    0.926560163E-02    0.926560163E-02    0.110025895E+01    0.112788796E+01
    0.500000000E+02    0.100645702E-01    0.100645702E-01    0.110486603E+01    0.116456902E+01
    0.500000000E+02    0.109309005E-01    0.109309005E-01    0.110965097E+01    0.120105195E+01
    0.500000000E+02    0.118702697E-01    0.118702697E-01    0.111464000E+01    0.123753095E+01
    0.500000000E+02    0.128888302E-01    0.128888302E-01    0.111985803E+01    0.127415299E+01
    0.500000000E+02    0.139932698E-01    0.139932698E-01    0.112532794E+01    0.131102705E+01
    0.500000000E+02    0.151908202E-01    0.151908202E-01    0.113107002E+01    0.134822905E+01
    0.500000000E+02    0.164893400E-01    0.164893400E-01    0.113710499E+01    0.138581300E+01
    0.500000000E+02    0.178973395E-01    0.178973395E-01    0.114345300E+01    0.142381501E+01
    0.500000000E+02    0.194240399E-01    0.194240399E-01    0.115013194E+01    0.146225405E+01
    0.500000000E+02    0.210794508E-01    0.210794508E-01    0.115716100E+01    0.150114202E+01
    0.500000000E+02    0.228744298E-01    0.228744298E-01    0.116455901E+01    0.154047894E+01
    0.500000000E+02    0.248207394E-01    0.248207394E-01    0.117234504E+01    0.158026004E+01
    0.500000000E+02    0.269311499E-01    0.269311499E-01    0.118053806E+01    0.162047803E+01
    0.500000000E+02    0.292194802E-01    0.292194802E-01    0.118915904E+01    0.166111696E+01
    0.500000000E+02    0.317007303E-01    0.317007303E-01    0.119822705E+01    0.170216095E+01
    0.500000000E+02    0.343911797E-01    0.343911797E-01    0.120776403E+01    0.174359000E+01
    0.500000000E+02    0.373084582E-01    0.373084582E-01    0.121779096E+01    0.178538203E+01
    0.500000000E+02    0.404716916E-01    0.404716916E-01    0.122833002E+01    0.182751095E+01
    0.500000000E+02    0.439015999E-01    0.439015999E-01    0.123940396E+01    0.186995006E+01
    0.500000000E+02    0.476206914E-01    0.476206914E-01    0.125103700E+01    0.191267002E+01
    0.500000000E+02    0.516533293E-01    0.516533293E-01    0.126325095E+01    0.195563602E+01
    0.500000000E+02    0.560259596E-01    0.560259596E-01    0.127607000E+01    0.199881196E+01
    0.500000000E+02    0.607672408E-01    0.607672408E-01    0.128951800E+01    0.204215693E+01
    0.500000000E+02    0.659082532E-01    0.659082532E-01    0.130361700E+01    0.208562803E+01
    0.500000000E+02    0.714827031E-01    0.714827031E-01    0.131839001E+01    0.212917495E+01
    0.500000000E+02    0.775271207E-01    0.775271207E-01    0.133385396E+01    0.217274189E+01
    0.500000000E+02    0.840811282E-01    0.840811282E-01    0.135002899E+01    0.221626902E+01
    0.500000000E+02    0.911877081E-01    0.911877081E-01    0.136692703E+01    0.225968909E+01
    0.500000000E+02    0.988934413E-01    0.988934413E-01    0.138455701E+01    0.230292511E+01
    0.500000000E+02    0.107248798E+00    0.107248798E+00    0.140292001E+01    0.234589291E+01
    0.500000000E+02    0.116308600E+00    0.116308600E+00    0.142200899E+01    0.238849902E+01
    0.500000000E+02    0.126132295E+00    0.126132295E+00    0.144180799E+01    0.243063998E+01
    0.500000000E+02    0.136784106E+00    0.136784106E+00    0.146228802E+01    0.247220397E+01
    0.500000000E+02    0.148334101E+00    0.148334101E+00    0.148340499E+01    0.251307297E+01
    0.500000000E+02    0.160857707E+00    0.160857707E+00    0.150510299E+01    0.255312395E+01
    0.500000000E+02    0.174437195E+00    0.174437195E+00    0.152731395E+01    0.259224391E+01
    0.500000000E+02    0.189161599E+00    0.189160123E+00    0.154996383E+01    0.263033509E+01
    0.500000000E+02    0.189163193E+00    0.189161599E+00    0.154996610E+01    0.263033891E+01
    0.500000000E+02    0.205127403E+00    0.205125809E+00    0.157298779E+01    0.266734600E+01
    0.500000000E+02    0.205129132E+00    0.205127403E+00    0.157299006E+01    0.266734958E+01
    0.500000000E+02    0.222439304E+00    0.222437575E+00    0.159634578E+01    0.270329118E+01
    0.500000000E+02    0.222441182E+00    0.222439304E+00    0.159634817E+01    0.270329475E+01
    0.500000000E+02    0.241210699E+00    0.241208822E+00    0.162004185E+01    0.273829007E+01
    0.500000000E+02    0.241212741E+00    0.241210699E+00    0.162004423E+01    0.273829365E+01
    0.500000000E+02    0.261564612E+00    0.261562586E+00    0.164414871E+01    0.277259016E+01
    0.500000000E+02    0.261566818E+00    0.261564612E+00    0.164415121E+01    0.277259374E+01
    0.500000000E+02    0.283634603E+00    0.283634603E+00    0.166879296E+01    0.280656409E+01
    0.500000000E+02    0.307565302E+00    0.307565302E+00    0.169410098E+01    0.284062600E+01
    0.500000000E+02    0.333513588E+00    0.333510995E+00    0.172006655E+01    0.287505507E+01
    0.500000000E+02    0.333516389E+00    0.333513588E+00    0.172006917E+01    0.287505865E+01
    0.500000000E+02    0.361649603E+00    0.361649603E+00    0.174633205E+01    0.290969992E+01
    0.500000000E+02    0.376903594E+00    0.376903594E+00    0.175908208E+01    0.292662096E+01
    0.500000000E+02    0.392157614E+00    0.392157614E+00    0.177183199E+01    0.294354200E+01
    0.500000000E+02    0.425237685E+00    0.425237685E+00    0.179445004E+01    0.297425103E+01
    0.500000000E+02    0.443172246E+00    0.443172246E+00    0.180240893E+01    0.298596191E+01
    0.500000000E+02    0.461106807E+00    0.461106807E+00    0.181036794E+01    0.299767303E+01
    0.500000000E+02    0.480553389E+00    0.480553389E+00    0.181299400E+01    0.300281596E+01
    0.500000000E+02    0.500000000E+00    0.500000000E+00    0.181561995E+01    0.300795889E+01
