#SST model results
VARIABLES = "x","cp"
ZONE T="CFL3D"
 1.000000000E+00 1.583908051E-01
 9.997505546E-01 1.678271890E-01
 9.994956851E-01 1.752931625E-01
 9.992352128E-01 1.737076044E-01
 9.989690781E-01 1.734151244E-01
 9.986971617E-01 1.724145263E-01
 9.984192848E-01 1.715986580E-01
 9.981353879E-01 1.706904322E-01
 9.978453517E-01 1.697975844E-01
 9.975489378E-01 1.688739657E-01
 9.972460866E-01 1.679503322E-01
 9.969367385E-01 1.670267135E-01
 9.966205955E-01 1.660876870E-01
 9.962975979E-01 1.651640683E-01
 9.959676266E-01 1.642404348E-01
 9.956305623E-01 1.633322090E-01
 9.952861071E-01 1.624239832E-01
 9.949342608E-01 1.615003496E-01
 9.945747852E-01 1.606075168E-01
 9.942075610E-01 1.596992761E-01
 9.938323498E-01 1.587910503E-01
 9.934490919E-01 1.578828096E-01
 9.930576086E-01 1.569591910E-01
 9.926576614E-01 1.560509652E-01
 9.922491312E-01 1.551427245E-01
 9.918317795E-01 1.542191058E-01
 9.914054871E-01 1.532954723E-01
 9.909700155E-01 1.523718536E-01
 9.905252457E-01 1.514328271E-01
 9.900709391E-01 1.504938155E-01
 9.896069169E-01 1.495547891E-01
 9.891329408E-01 1.486157775E-01
 9.886488914E-01 1.476613581E-01
 9.881544709E-01 1.466915458E-01
 9.876495004E-01 1.457371414E-01
 9.871338010E-01 1.447673291E-01
 9.866071343E-01 1.437821239E-01
 9.860692620E-01 1.427969337E-01
 9.855199456E-01 1.418117285E-01
 9.849590063E-01 1.408111304E-01
 9.843862057E-01 1.398105472E-01
 9.838012457E-01 1.387945563E-01
 9.832039475E-01 1.377785653E-01
 9.825940728E-01 1.367471814E-01
 9.819713235E-01 1.357157975E-01
 9.813354611E-01 1.346690208E-01
 9.806861877E-01 1.336222440E-01
 9.800233245E-01 1.325600743E-01
 9.793465734E-01 1.314979047E-01
 9.786556363E-01 1.304357350E-01
 9.779502153E-01 1.293581724E-01
 9.772301316E-01 1.282806098E-01
 9.764949679E-01 1.271876544E-01
 9.757445455E-01 1.261100918E-01
 9.749785066E-01 1.250171363E-01
 9.741965532E-01 1.239395738E-01
 9.733983874E-01 1.228466183E-01
 9.725837111E-01 1.217844486E-01
 9.717522264E-01 1.207222790E-01
 9.709035754E-01 1.196601093E-01
 9.700374603E-01 1.186441183E-01
 9.691535234E-01 1.177204922E-01
 9.682514668E-01 1.168430448E-01
 9.673308730E-01 1.159963906E-01
 9.663915038E-01 1.152113080E-01
 9.654329419E-01 1.144724116E-01
 9.644548297E-01 1.137950867E-01
 9.634568691E-01 1.131639406E-01
 9.624387026E-01 1.125943735E-01
 9.613999128E-01 1.120709851E-01
 9.603402019E-01 1.116245613E-01
 9.592591524E-01 1.112089306E-01
 9.581564069E-01 1.108548716E-01
 9.570315480E-01 1.105316058E-01
 9.558842778E-01 1.102545187E-01
 9.547141790E-01 1.099928245E-01
 9.535208941E-01 1.097157374E-01
 9.523039460E-01 1.094694361E-01
 9.510630965E-01 1.086997464E-01
 9.497979283E-01 1.075452194E-01
 9.485079646E-01 1.069448590E-01
 9.471927285E-01 1.065754071E-01
 9.458519220E-01 1.058519036E-01
 9.444850683E-01 1.046204045E-01
 9.430918097E-01 1.033427194E-01
 9.416716695E-01 1.023113355E-01
 9.402241707E-01 1.013569236E-01
 9.387488365E-01 1.003255397E-01
 9.372453690E-01 9.923258424E-02
 9.357131720E-01 9.818580747E-02
 9.341518283E-01 9.712363780E-02
 9.325609803E-01 9.606146812E-02
 9.309400916E-01 9.501469135E-02
 9.292888045E-01 9.396792203E-02
 9.276065230E-01 9.290575236E-02
 9.258929491E-01 9.185897559E-02
 9.241474867E-01 9.081219882E-02
 9.223697782E-01 8.976542205E-02
 9.205593467E-01 8.870325238E-02
 9.187157154E-01 8.761029691E-02
 9.168384075E-01 8.654812723E-02
 9.149270058E-01 8.553213626E-02
 9.129810929E-01 8.437760174E-02
 9.110001326E-01 8.309992403E-02
 9.089837074E-01 8.182223886E-02
 9.069313407E-01 8.059073985E-02
 9.048426151E-01 7.937463373E-02
 9.027169943E-01 7.815852761E-02
 9.005540609E-01 7.695781440E-02
 8.983533382E-01 7.575710118E-02
 8.961144090E-01 7.454099506E-02
 8.938368559E-01 7.332488149E-02
 8.915202022E-01 7.210877538E-02
 8.891639709E-01 7.090806216E-02
 8.867678642E-01 6.969195604E-02
 8.843312860E-01 6.849124283E-02
 8.818539381E-01 6.727513671E-02
 8.793354034E-01 6.605903059E-02
 8.767752051E-01 6.484292448E-02
 8.741729856E-01 6.362681836E-02
 8.715283871E-01 6.241070852E-02
 8.688409328E-01 6.117920578E-02
 8.661103249E-01 5.996309966E-02
 8.633361459E-01 5.873159692E-02
 8.605180979E-01 5.751549080E-02
 8.576557636E-01 5.628399178E-02
 8.547489047E-01 5.503709614E-02
 8.517971039E-01 5.379020050E-02
 8.488000631E-01 5.254330486E-02
 8.457575440E-01 5.131180584E-02
 8.426691890E-01 5.008030310E-02
 8.395348191E-01 4.883341119E-02
 8.363540173E-01 4.760190845E-02
 8.331267238E-01 4.635501280E-02
 8.298526406E-01 4.510812089E-02
 8.265314698E-01 4.386122525E-02
 8.231631517E-01 4.261432961E-02
 8.197475076E-01 4.135204107E-02
 8.162842989E-01 4.008975253E-02
 8.127734661E-01 3.881207108E-02
 8.092148304E-01 3.751899675E-02
 8.056083322E-01 3.622591868E-02
 8.019539118E-01 3.490205482E-02
 7.982515097E-01 3.356279805E-02
 7.945011258E-01 3.223893419E-02
 7.907026410E-01 3.089967743E-02
 7.868561745E-01 2.954502590E-02
 7.829617262E-01 2.819037624E-02
 7.790193558E-01 2.683572471E-02
 7.750291824E-01 2.545028552E-02
 7.709913254E-01 2.406484820E-02
 7.669059038E-01 2.266401611E-02
 7.627730966E-01 2.126318216E-02
 7.585930824E-01 1.983156241E-02
 7.543661594E-01 1.836915500E-02
 7.500925064E-01 1.690674759E-02
 7.457724214E-01 1.541355345E-02
 7.414062619E-01 1.392035838E-02
 7.369942665E-01 1.239637658E-02
 7.325369120E-01 1.085700002E-02
 7.280345559E-01 9.302230552E-03
 7.234875560E-01 7.732066326E-03
 7.188965082E-01 6.131115369E-03
 7.142618299E-01 4.514770582E-03
 7.095840573E-01 2.883031731E-03
 7.048637271E-01 1.220505335E-03
 7.001014352E-01 -4.574146296E-04
 6.952978373E-01 -2.150728367E-03
 6.904534698E-01 -3.890223568E-03
 6.855691671E-01 -5.645112135E-03
 6.806454659E-01 -7.430788595E-03
 6.756832600E-01 -9.231858887E-03
 6.706832051E-01 -1.107911021E-02
 6.656461954E-01 -1.294175535E-02
 6.605730057E-01 -1.485058200E-02
 6.554644704E-01 -1.677480154E-02
 6.503215432E-01 -1.871441491E-02
 6.451451778E-01 -2.076178603E-02
 6.399362087E-01 -2.291691303E-02
 6.346957088E-01 -2.510282770E-02
 6.294246316E-01 -2.733492292E-02
 6.241239905E-01 -2.962859347E-02
 6.187948585E-01 -3.195305169E-02
 6.134383082E-01 -3.430829570E-02
 6.080553532E-01 -3.669432923E-02
 6.026471853E-01 -3.897260502E-02
 5.972149372E-01 -4.131245613E-02
 5.917598009E-01 -4.382164031E-02
 5.862830281E-01 -4.636161029E-02
 5.807857513E-01 -4.896315560E-02
 5.752692223E-01 -5.161088333E-02
 5.697346330E-01 -5.430479348E-02
 5.641833544E-01 -5.704488233E-02
 5.586165786E-01 -5.983115360E-02
 5.530356765E-01 -6.250967085E-02
 5.474418402E-01 -6.528054178E-02
 5.418365002E-01 -6.834390014E-02
 5.362210274E-01 -7.145344466E-02
 5.305966735E-01 -7.465534657E-02
 5.249648690E-01 -7.793421298E-02
 5.193268657E-01 -8.129005879E-02
 5.136840343E-01 -8.469207585E-02
 5.080377460E-01 -8.809410036E-02
 5.023893118E-01 -9.112667292E-02
 4.967401624E-01 -9.455947578E-02
 4.910918772E-01 -9.876197577E-02
 4.854457378E-01 -1.030260473E-01
 4.798030555E-01 -1.074440554E-01
 4.741651416E-01 -1.120006144E-01
 4.685332477E-01 -1.166033447E-01
 4.629087150E-01 -1.211906895E-01
 4.572927952E-01 -1.255009472E-01
 4.516867995E-01 -1.287952065E-01
 4.460920990E-01 -1.327821910E-01
 4.405103326E-01 -1.380622536E-01
 4.349427223E-01 -1.432345510E-01
 4.293904603E-01 -1.485761851E-01
 4.238547385E-01 -1.540101916E-01
 4.183367491E-01 -1.594287902E-01
 4.128376245E-01 -1.646780670E-01
 4.073585570E-01 -1.694655269E-01
 4.019007087E-01 -1.725904495E-01
 3.964653313E-01 -1.762079895E-01
 3.910539150E-01 -1.813802868E-01
 3.856675327E-01 -1.863062978E-01
 3.803073168E-01 -1.912784874E-01
 3.749742508E-01 -1.962660551E-01
 3.696694374E-01 -2.011766732E-01
 3.643938601E-01 -2.057640105E-01
 3.591485620E-01 -2.101204544E-01
 3.539345562E-01 -2.126142383E-01
 3.487528563E-01 -2.144460976E-01
 3.436045647E-01 -2.179866582E-01
 3.384906650E-01 -2.217889130E-01
 3.334120810E-01 -2.253910601E-01
 3.283696175E-01 -2.289777994E-01
 3.233641684E-01 -2.324413955E-01
 3.183965683E-01 -2.356279045E-01
 3.134675920E-01 -2.383987904E-01
 3.085780740E-01 -2.405385226E-01
 3.037288189E-01 -2.423549891E-01
 2.989205420E-01 -2.426320761E-01
 2.941540182E-01 -2.406308800E-01
 2.894300222E-01 -2.376291007E-01
 2.847491205E-01 -2.339192033E-01
 2.801119089E-01 -2.296243459E-01
 2.755188346E-01 -2.249600291E-01
 2.709704041E-01 -2.202033550E-01
 2.664669752E-01 -2.155698389E-01
 2.620089352E-01 -2.113211602E-01
 2.575966120E-01 -2.075804770E-01
 2.532302439E-01 -2.052714080E-01
 2.489101440E-01 -2.044247538E-01
 2.446366549E-01 -2.039013654E-01
 2.404101193E-01 -2.036704570E-01
 2.362308204E-01 -2.038551867E-01
 2.320990115E-01 -2.042554170E-01
 2.280149311E-01 -2.047634125E-01
 2.239787877E-01 -2.052714080E-01
 2.199907601E-01 -2.056870461E-01
 2.160509974E-01 -2.059487402E-01
 2.121596336E-01 -2.059795260E-01
 2.083167732E-01 -2.056870461E-01
 2.045225054E-01 -2.050097138E-01
 2.007768899E-01 -2.036704570E-01
 1.970799714E-01 -2.014691532E-01
 1.934316903E-01 -1.986982822E-01
 1.898319870E-01 -1.956041306E-01
 1.862806976E-01 -1.922174990E-01
 1.827777028E-01 -1.885999739E-01
 1.793228090E-01 -1.848746836E-01
 1.759158373E-01 -1.811031997E-01
 1.725565642E-01 -1.773471236E-01
 1.692447662E-01 -1.736834198E-01
 1.659801900E-01 -1.701428443E-01
 1.627625823E-01 -1.668024063E-01
 1.595916599E-01 -1.637236476E-01
 1.564671248E-01 -1.609373838E-01
 1.533886939E-01 -1.586744934E-01
 1.503560394E-01 -1.572274864E-01
 1.473689079E-01 -1.558266431E-01
 1.444270760E-01 -1.542102993E-01
 1.415302306E-01 -1.528556496E-01
 1.386780590E-01 -1.515779793E-01
 1.358702183E-01 -1.503618658E-01
 1.331063509E-01 -1.492073387E-01
 1.303861141E-01 -1.481143832E-01
 1.277091354E-01 -1.470521986E-01
 1.250750273E-01 -1.460362226E-01
 1.224834174E-01 -1.450510174E-01
 1.199338958E-01 -1.440965980E-01
 1.174260676E-01 -1.431883723E-01
 1.149595231E-01 -1.422955394E-01
 1.125338450E-01 -1.414334774E-01
 1.101486087E-01 -1.405714303E-01
 1.078033820E-01 -1.397401690E-01
 1.054977328E-01 -1.388935149E-01
 1.032312289E-01 -1.380314678E-01
 1.010034159E-01 -1.370154768E-01
 9.881384671E-02 -1.360456645E-01
 9.666202962E-02 -1.353683472E-01
 9.454749525E-02 -1.347679794E-01
 9.246978164E-02 -1.342907846E-01
 9.042843431E-02 -1.339521110E-01
 8.842299879E-02 -1.337673962E-01
 8.645299822E-02 -1.337212026E-01
 8.451798558E-02 -1.338289678E-01
 8.261749148E-02 -1.340752691E-01
 8.075105399E-02 -1.344754994E-01
 7.891821861E-02 -1.350296736E-01
 7.711853087E-02 -1.357223988E-01
 7.535152137E-02 -1.365844458E-01
 7.361673564E-02 -1.376004368E-01
 7.191371918E-02 -1.387857497E-01
 7.024202496E-02 -1.401404142E-01
 6.860119104E-02 -1.416643858E-01
 6.699077785E-02 -1.433577091E-01
 6.541033089E-02 -1.452511400E-01
 6.385941803E-02 -1.473293006E-01
 6.233758852E-02 -1.495921761E-01
 6.084440649E-02 -1.520551741E-01
 5.937944725E-02 -1.547182947E-01
 5.794227496E-02 -1.575815380E-01
 5.653246865E-02 -1.606295109E-01
 5.514961109E-02 -1.638621986E-01
 5.379329249E-02 -1.672488153E-01
 5.246310309E-02 -1.708201766E-01
 5.115865543E-02 -1.740528643E-01
 4.987955093E-02 -1.771008223E-01
 4.862534627E-02 -1.809184849E-01
 4.739559442E-02 -1.852133423E-01
 4.618990794E-02 -1.896467507E-01
 4.500791058E-02 -1.943418384E-01
 4.384922981E-02 -1.992832422E-01
 4.271349683E-02 -2.044401467E-01
 4.160035402E-02 -2.097817808E-01
 4.050944373E-02 -2.152773589E-01
 3.944041580E-02 -2.208806872E-01
 3.839294240E-02 -2.266071588E-01
 3.736666963E-02 -2.324260026E-01
 3.636128455E-02 -2.383372188E-01
 3.537644818E-02 -2.442945987E-01
 3.441184014E-02 -2.502673864E-01
 3.346714005E-02 -2.561170161E-01
 3.254200891E-02 -2.616433799E-01
 3.163613379E-02 -2.665847540E-01
 3.074916080E-02 -2.708488405E-01
 2.988076396E-02 -2.744663656E-01
 2.903058194E-02 -2.775913179E-01
 2.819825523E-02 -2.804545462E-01
 2.738342062E-02 -2.833793461E-01
 2.658569999E-02 -2.864427269E-01
 2.580472454E-02 -2.908145487E-01
 2.504011430E-02 -2.968643010E-01
 2.429169230E-02 -3.014516234E-01
 2.355940640E-02 -3.047459126E-01
 2.284297720E-02 -3.086712956E-01
 2.214216255E-02 -3.125659227E-01
 2.145670354E-02 -3.162604272E-01
 2.078633569E-02 -3.196778595E-01
 2.013084479E-02 -3.227719963E-01
 1.948996261E-02 -3.255274892E-01
 1.886346564E-02 -3.279289007E-01
 1.825112849E-02 -3.298993111E-01
 1.765269414E-02 -3.314540684E-01
 1.706797071E-02 -3.325162530E-01
 1.649670675E-02 -3.330858052E-01
 1.593868062E-02 -3.331319988E-01
 1.539369021E-02 -3.326393962E-01
 1.486147661E-02 -3.315772116E-01
 1.434185170E-02 -3.299762607E-01
 1.383457612E-02 -3.278211355E-01
 1.333940681E-02 -3.251426220E-01
 1.285615284E-02 -3.219869137E-01
 1.238454878E-02 -3.184155524E-01
 1.192437578E-02 -3.145055473E-01
 1.147540938E-02 -3.103646338E-01
 1.103737950E-02 -3.060851693E-01
 1.061007660E-02 -3.018518686E-01
 1.019324362E-02 -2.963870764E-01
 9.786547162E-03 -2.935238481E-01
 9.389444254E-03 -2.944936454E-01
 9.001806378E-03 -2.955096364E-01
 8.623584174E-03 -2.969874442E-01
 8.254772052E-03 -2.990502119E-01
 7.895328104E-03 -3.015440106E-01
 7.545236498E-03 -3.042379022E-01
 7.204530761E-03 -3.068394363E-01
 6.873171311E-03 -3.091023266E-01
 6.551199593E-03 -3.107186854E-01
 6.238665897E-03 -3.114267886E-01
 5.935526919E-03 -3.109188080E-01
 5.641892552E-03 -3.088868260E-01
 5.357792135E-03 -3.050537705E-01
 5.083175376E-03 -2.991117835E-01
 4.818195011E-03 -2.907837629E-01
 4.562828690E-03 -2.798541784E-01
 4.316995386E-03 -2.661383450E-01
 4.080845043E-03 -2.495130897E-01
 3.854274284E-03 -2.299014330E-01
 3.637133632E-03 -2.073649615E-01
 3.429513192E-03 -1.820268333E-01
 3.231222741E-03 -1.540563703E-01
 3.042007098E-03 -1.237768382E-01
 2.861846006E-03 -9.155769646E-02
 2.690493362E-03 -5.781457201E-02
 2.527598292E-03 -2.290151827E-02
 2.372958232E-03 1.231940743E-02
 2.226354321E-03 4.812529683E-02
 2.087388886E-03 7.828167826E-02
 1.955782995E-03 1.107317284E-01
 1.832882059E-03 1.533262581E-01
 1.718537649E-03 1.968444288E-01
 1.612004358E-03 2.398084104E-01
 1.512641786E-03 2.823259830E-01
 1.420039567E-03 3.238121867E-01
 1.333664753E-03 3.639436960E-01
 1.253001625E-03 4.023819268E-01
 1.177590457E-03 4.389728904E-01
 1.107052551E-03 4.735626876E-01
 1.041079056E-03 5.061820745E-01
 9.793153731E-04 5.368772149E-01
 9.214414749E-04 5.657097697E-01
 8.671685355E-04 5.927719474E-01
 8.162400336E-04 6.181254983E-01
 7.684506127E-04 6.418473125E-01
 7.235798985E-04 6.640912890E-01
 6.814224180E-04 6.849190593E-01
 6.417906261E-04 7.044229507E-01
 6.045130431E-04 7.226953506E-01
 5.694334977E-04 7.398132086E-01
 5.364209646E-04 7.558380961E-01
 5.053424393E-04 7.708777785E-01
 4.760721931E-04 7.849630713E-01
 4.484944220E-04 7.981863022E-01
 4.225021112E-04 8.105937243E-01
 3.979962203E-04 8.222467899E-01
 3.748851304E-04 8.331763744E-01
 3.530888062E-04 8.434439898E-01
 3.325290454E-04 8.530958891E-01
 3.131311678E-04 8.621628284E-01
 2.948256733E-04 8.706909418E-01
 2.775479225E-04 8.787111044E-01
 2.612375538E-04 8.862540126E-01
 2.458382514E-04 8.933505416E-01
 2.312974975E-04 9.000314474E-01
 2.175667032E-04 9.063274860E-01
 2.046016161E-04 9.122387171E-01
 1.923586824E-04 9.178112745E-01
 1.807971275E-04 9.230759144E-01
 1.698786800E-04 9.280173182E-01
 1.595674548E-04 9.326816201E-01
 1.498297497E-04 9.370688200E-01
 1.406338997E-04 9.412097931E-01
 1.319501753E-04 9.451043606E-01
 1.237505348E-04 9.487835169E-01
 1.160087122E-04 9.522470832E-01
 1.087005658E-04 9.555105567E-01
 1.018026742E-04 9.585893154E-01
 9.529286035E-05 9.614833593E-01
 8.915021317E-05 9.642080665E-01
 8.335502935E-05 9.667788148E-01
 7.788869698E-05 9.691956043E-01
 7.273365190E-05 9.714739323E-01
 6.787331949E-05 9.736290574E-01
 6.329201278E-05 9.756456017E-01
 5.897494339E-05 9.775390625E-01
 5.490810508E-05 9.793246984E-01
 5.107825564E-05 9.810026288E-01
 4.747289131E-05 9.825881720E-01
 4.408036693E-05 9.840660095E-01
 4.088942660E-05 9.854514599E-01
 3.788941467E-05 9.867599010E-01
 3.507024303E-05 9.879913926E-01
 3.242235471E-05 9.891459346E-01
 2.993670751E-05 9.902080894E-01
 2.760472307E-05 9.912241101E-01
 2.541827780E-05 9.921631217E-01
 2.336967009E-05 9.930405617E-01
 2.145160215E-05 9.938718081E-01
 1.965715273E-05 9.946261048E-01
 1.797975892E-05 9.953496456E-01
 1.641319432E-05 9.960115552E-01
 1.495155902E-05 9.966273308E-01
 1.358925056E-05 9.971968532E-01
 1.232095474E-05 9.977356791E-01
 1.114163024E-05 9.982282519E-01
 1.004652768E-05 9.986746907E-01
 9.031105947E-06 9.990903139E-01
 8.091044037E-06 9.994751811E-01
 7.222245131E-06 9.998292327E-01
 6.420820682E-06 1.000152469E+00
 5.683079507E-06 1.000445008E+00
 5.005518233E-06 1.000706673E+00
 4.384811291E-06 1.000952959E+00
 3.817801371E-06 1.001168489E+00
 3.301492143E-06 1.001353145E+00
 2.833038479E-06 1.001537919E+00
 2.409740318E-06 1.001676440E+00
 2.029034022E-06 1.001814961E+00
 1.688486009E-06 1.001922727E+00
 1.385786504E-06 1.002030492E+00
 1.118742830E-06 1.002107501E+00
 8.852738347E-07 1.002169013E+00
 6.834043802E-07 1.002215266E+00
 5.112596568E-07 1.002261400E+00
 3.670607214E-07 1.002276778E+00
 2.491193243E-07 1.002292156E+00
 1.558336322E-07 1.002292156E+00
 8.568387244E-08 1.002276778E+00
 3.722830400E-08 1.002261400E+00
 9.099365705E-09 1.002199888E+00
 0.000000000E+00 1.002138257E+00
 9.136088330E-09 1.002122879E+00
 3.753262234E-08 1.002092123E+00
 8.674717833E-08 1.002015114E+00
 1.584429299E-07 1.001953602E+00
 2.543956725E-07 1.001861215E+00
 3.765014753E-07 1.001753449E+00
 5.267846177E-07 1.001630306E+00
 7.074062296E-07 1.001491785E+00
 9.206736991E-07 1.001337767E+00
 1.169050279E-06 1.001168489E+00
 1.455165943E-06 1.000983715E+00
 1.781828360E-06 1.000768185E+00
 2.152034995E-06 1.000552773E+00
 2.568986474E-06 1.000290990E+00
 3.036099770E-06 1.000013947E+00
 3.557023547E-06 9.997214675E-01
 4.135653398E-06 9.993827939E-01
 4.776150035E-06 9.990287423E-01
 5.482955657E-06 9.986438751E-01
 6.260815098E-06 9.982282519E-01
 7.114794244E-06 9.977818131E-01
 8.050305951E-06 9.972892404E-01
 9.073130968E-06 9.967658520E-01
 1.018944386E-05 9.961962700E-01
 1.140585937E-05 9.955805540E-01
 1.272939062E-05 9.949185848E-01
 1.416748910E-05 9.942258596E-01
 1.572817018E-05 9.934561849E-01
 1.742000495E-05 9.926556945E-01
 1.925214201E-05 9.917782545E-01
 2.123435843E-05 9.908392429E-01
 2.337710430E-05 9.898540378E-01
 2.569153912E-05 9.887765050E-01
 2.818959183E-05 9.876373410E-01
 3.088400626E-05 9.864212275E-01
 3.378840120E-05 9.851127863E-01
 3.691733582E-05 9.837273359E-01
 4.028635522E-05 9.822341204E-01
 4.391208131E-05 9.806485772E-01
 4.781228199E-05 9.789706469E-01
 5.200590749E-05 9.771695733E-01
 5.651255560E-05 9.752453566E-01
 6.135369767E-05 9.731979966E-01
 6.655229663E-05 9.710121155E-01
 7.213283970E-05 9.687030315E-01
 7.812149124E-05 9.662400484E-01
 8.454616182E-05 9.636076689E-01
 9.143664647E-05 9.608214498E-01
 9.882472659E-05 9.578503966E-01
 1.067443154E-04 9.546946883E-01
 1.152315599E-04 9.513388872E-01
 1.243247098E-04 9.477829337E-01
 1.340622839E-04 9.440114498E-01
 1.444871887E-04 9.399936795E-01
 1.556452189E-04 9.357450008E-01
 1.675850508E-04 9.312499762E-01
 1.803584455E-04 9.264779091E-01
 1.940203510E-04 9.214287996E-01
 2.086290624E-04 9.160871506E-01
 2.242464543E-04 9.104530215E-01
 2.409349836E-04 9.044802785E-01
 2.587575873E-04 8.981996179E-01
 2.777856134E-04 8.915649056E-01
 2.980943536E-04 8.845761418E-01
 3.197632032E-04 8.772332668E-01
 3.428756027E-04 8.695210218E-01
 3.675194166E-04 8.614239097E-01
 3.937832080E-04 8.529419303E-01
 4.217478563E-04 8.440443277E-01
 4.515093169E-04 8.347772956E-01
 4.831687256E-04 8.250946403E-01
 5.168315256E-04 8.150271177E-01
 5.526072346E-04 8.045593500E-01
 5.906074657E-04 7.936913371E-01
 6.309231394E-04 7.824538946E-01
 6.736622890E-04 7.708470225E-01
 7.189432508E-04 7.588860393E-01
 7.668873877E-04 7.465864420E-01
 8.176192059E-04 7.339635491E-01
 8.712525596E-04 7.210481763E-01
 9.278748767E-04 7.078711390E-01
 9.876071708E-04 6.944477558E-01
 1.050574356E-03 6.808242798E-01
 1.116902800E-03 6.670468450E-01
 1.186710899E-03 6.531001329E-01
 1.260070479E-03 6.390455961E-01
 1.337093418E-03 6.249603033E-01
 1.417899854E-03 6.108288765E-01
 1.502609928E-03 5.967435837E-01
 1.591327600E-03 5.826890469E-01
 1.684108633E-03 5.687268972E-01
 1.781058498E-03 5.548263788E-01
 1.882287790E-03 5.407564640E-01
 1.987906406E-03 5.272099376E-01
 2.097738907E-03 5.150181055E-01
 2.211534185E-03 5.021489263E-01
 2.329434268E-03 4.879558384E-01
 2.451587468E-03 4.734703302E-01
 2.578142099E-03 4.585383832E-01
 2.709213877E-03 4.432369769E-01
 2.844951116E-03 4.276277125E-01
 2.985515632E-03 4.117259383E-01
 3.131073900E-03 3.955778778E-01
 3.281754674E-03 3.792143166E-01
 3.437707433E-03 3.626506329E-01
 3.599108662E-03 3.459638059E-01
 3.766138339E-03 3.291384280E-01
 3.938932437E-03 3.122206628E-01
 4.117649049E-03 2.952567339E-01
 4.302477930E-03 2.782774270E-01
 4.493609536E-03 2.612827122E-01
 4.691177048E-03 2.443495691E-01
 4.895357881E-03 2.274780124E-01
 5.106354132E-03 2.107295990E-01
 5.324353930E-03 1.941043437E-01
 5.549492314E-03 1.776638031E-01
 5.781971384E-03 1.614233851E-01
 6.022005808E-03 1.454292685E-01
 6.269752979E-03 1.297276318E-01
 6.525381934E-03 1.143338680E-01
 6.789113861E-03 9.929416329E-02
 7.061153185E-03 8.465469629E-02
 7.341639139E-03 7.046164572E-02
 7.630790118E-03 5.676119775E-02
 7.928836159E-03 4.359953105E-02
 8.235924877E-03 3.105361573E-02
 8.552256972E-03 1.920041814E-02
 8.878069930E-03 8.039942011E-03
 9.213547222E-03 -2.443209756E-03
 9.558859281E-03 -1.269545499E-02
 9.914254770E-03 -2.188553102E-02
 1.027964428E-02 -2.756582946E-02
 1.065458171E-02 -3.369254619E-02
 1.103932597E-02 -4.239002243E-02
 1.143415272E-02 -5.119525269E-02
 1.183930133E-02 -6.036993489E-02
 1.225505583E-02 -6.963697821E-02
 1.268169191E-02 -7.893481106E-02
 1.311944425E-02 -8.814027905E-02
 1.356859971E-02 -9.719181061E-02
 1.402942371E-02 -1.059970409E-01
 1.450214814E-02 -1.145097911E-01
 1.498705801E-02 -1.226684898E-01
 1.548440382E-02 -1.304269433E-01
 1.599442028E-02 -1.377697736E-01
 1.651739143E-02 -1.446661800E-01
 1.705354452E-02 -1.511161625E-01
 1.760313101E-02 -1.570735425E-01
 1.816642471E-02 -1.625691205E-01
 1.874364167E-02 -1.675720960E-01
 1.933504827E-02 -1.720978618E-01
 1.994090714E-02 -1.761156321E-01
 2.056143992E-02 -1.796407998E-01
 2.119692415E-02 -1.826425791E-01
 2.184761129E-02 -1.851363778E-01
 2.251373976E-02 -1.871529520E-01
 2.319559827E-02 -1.888462752E-01
 2.389342897E-02 -1.907397062E-01
 2.460749634E-02 -1.932950616E-01
 2.533790283E-02 -1.907089204E-01
 2.608367801E-02 -1.877071261E-01
 2.684505098E-02 -1.906319410E-01
 2.762253582E-02 -1.953578293E-01
 2.841666900E-02 -2.016846687E-01
 2.922801860E-02 -2.091814280E-01
 3.005714715E-02 -2.174940556E-01
 3.090462647E-02 -2.262838930E-01
 3.177102283E-02 -2.351814955E-01
 3.265686706E-02 -2.438943535E-01
 3.356269374E-02 -2.521608174E-01
 3.448896855E-02 -2.597807348E-01
 3.543617576E-02 -2.666155398E-01
 3.640473634E-02 -2.725575566E-01
 3.739504889E-02 -2.775759101E-01
 3.840752691E-02 -2.815936804E-01
 3.944249451E-02 -2.845954597E-01
 4.050034285E-02 -2.865504622E-01
 4.158139601E-02 -2.873971164E-01
 4.268599302E-02 -2.871662378E-01
 4.381449521E-02 -2.859193385E-01
 4.496720061E-02 -2.838257849E-01
 4.614447430E-02 -2.811626494E-01
 4.734666646E-02 -2.782224417E-01
 4.857409373E-02 -2.754053771E-01
 4.982713982E-02 -2.722034752E-01
 5.110596120E-02 -2.678316534E-01
 5.241059884E-02 -2.643064857E-01
 5.374143273E-02 -2.623822689E-01
 5.509884655E-02 -2.609814405E-01
 5.648323894E-02 -2.602425218E-01
 5.789502338E-02 -2.600116134E-01
 5.933462828E-02 -2.603041232E-01
 6.080247462E-02 -2.610276043E-01
 6.229900941E-02 -2.621975541E-01
 6.382468343E-02 -2.637523115E-01
 6.537993252E-02 -2.657073140E-01
 6.696522981E-02 -2.680163980E-01
 6.858104467E-02 -2.706795037E-01
 7.022784650E-02 -2.736659050E-01
 7.190610468E-02 -2.769909501E-01
 7.361631095E-02 -2.806238830E-01
 7.535895705E-02 -2.845492959E-01
 7.713454217E-02 -2.887825668E-01
 7.894356549E-02 -2.932929397E-01
 8.078654110E-02 -2.980957925E-01
 8.266399056E-02 -3.031449616E-01
 8.457645029E-02 -3.084403872E-01
 8.652444184E-02 -3.139513731E-01
 8.850853145E-02 -3.196470737E-01
 9.052927792E-02 -3.254505098E-01
 9.258724749E-02 -3.313001394E-01
 9.468306601E-02 -3.370420039E-01
 9.681734443E-02 -3.425991535E-01
 9.899071604E-02 -3.479561806E-01
 1.012038812E-01 -3.521894813E-01
 1.034572199E-01 -3.550527096E-01
 1.057511643E-01 -3.573001921E-01
 1.080861017E-01 -3.589319289E-01
 1.104624495E-01 -3.600402772E-01
 1.128805801E-01 -3.606714308E-01
 1.153408885E-01 -3.608715534E-01
 1.178437248E-01 -3.607022166E-01
 1.203894615E-01 -3.602250218E-01
 1.229784340E-01 -3.595015109E-01
 1.256109774E-01 -3.585778773E-01
 1.282874197E-01 -3.575157225E-01
 1.310080588E-01 -3.564227521E-01
 1.337732077E-01 -3.553605974E-01
 1.365831196E-01 -3.544831574E-01
 1.394380629E-01 -3.539135754E-01
 1.423382759E-01 -3.537750244E-01
 1.452840120E-01 -3.540521264E-01
 1.482754499E-01 -3.544831574E-01
 1.513128877E-01 -3.577466309E-01
 1.543972790E-01 -3.619183302E-01
 1.575290263E-01 -3.638117611E-01
 1.607083827E-01 -3.651510179E-01
 1.639355719E-01 -3.660746515E-01
 1.672107875E-01 -3.667211831E-01
 1.705342084E-01 -3.671368062E-01
 1.739060134E-01 -3.673677146E-01
 1.773263365E-01 -3.674908578E-01
 1.807952970E-01 -3.675678372E-01
 1.843129992E-01 -3.676601946E-01
 1.878795326E-01 -3.678449392E-01
 1.914949417E-01 -3.681835830E-01
 1.951592714E-01 -3.685530424E-01
 1.988725364E-01 -3.691841960E-01
 2.026348412E-01 -3.712007701E-01
 2.064464837E-01 -3.729402721E-01
 2.103074640E-01 -3.732635379E-01
 2.142176777E-01 -3.733558953E-01
 2.181770205E-01 -3.731557727E-01
 2.221853733E-01 -3.727709353E-01
 2.262425721E-01 -3.722937107E-01
 2.303484231E-01 -3.717703223E-01
 2.345027179E-01 -3.713085353E-01
 2.387052178E-01 -3.709698617E-01
 2.429556400E-01 -3.707697392E-01
 2.472537011E-01 -3.706004024E-01
 2.515990734E-01 -3.715086281E-01
 2.559916377E-01 -3.728632927E-01
 2.604311109E-01 -3.733713031E-01
 2.649170458E-01 -3.736329675E-01
 2.694490254E-01 -3.737869263E-01
 2.740266323E-01 -3.738638759E-01
 2.786493599E-01 -3.739254773E-01
 2.833167017E-01 -3.740178347E-01
 2.880280614E-01 -3.741563559E-01
 2.927829027E-01 -3.744180501E-01
 2.975806296E-01 -3.747875094E-01
 3.024205267E-01 -3.754340410E-01
 3.073019981E-01 -3.764346540E-01
 3.122243881E-01 -3.776199818E-01
 3.171869516E-01 -3.789130449E-01
 3.221889734E-01 -3.802523017E-01
 3.272297084E-01 -3.816069365E-01
 3.323082924E-01 -3.828846216E-01
 3.374239206E-01 -3.840853572E-01
 3.425757289E-01 -3.851937056E-01
 3.477627635E-01 -3.862096965E-01
 3.529841304E-01 -3.865175545E-01
 3.582387567E-01 -3.867946565E-01
 3.635256588E-01 -3.876413107E-01
 3.688438237E-01 -3.885033429E-01
 3.741921782E-01 -3.893346190E-01
 3.795696199E-01 -3.900735080E-01
 3.849750459E-01 -3.906276822E-01
 3.904072940E-01 -3.909509778E-01
 3.958651721E-01 -3.910587132E-01
 4.013474882E-01 -3.907200694E-01
 4.068529904E-01 -3.898425996E-01
 4.123803973E-01 -3.886573017E-01
 4.179284573E-01 -3.872564733E-01
 4.234958887E-01 -3.856709003E-01
 4.290813506E-01 -3.839160204E-01
 4.346835315E-01 -3.820533752E-01
 4.403010905E-01 -3.800521791E-01
 4.459326863E-01 -3.778200746E-01
 4.515769482E-01 -3.759882152E-01
 4.572324455E-01 -3.741255701E-01
 4.628977478E-01 -3.714008927E-01
 4.685714841E-01 -3.683067262E-01
 4.742522538E-01 -3.650432527E-01
 4.799386859E-01 -3.616720438E-01
 4.856293797E-01 -3.582700193E-01
 4.913229942E-01 -3.548987806E-01
 4.970181286E-01 -3.514967561E-01
 5.027133822E-01 -3.487104774E-01
 5.084072948E-01 -3.461089432E-01
 5.140982866E-01 -3.430301845E-01
 5.197851062E-01 -3.398436904E-01
 5.254663229E-01 -3.365648091E-01
 5.311404467E-01 -3.332551420E-01
 5.368062258E-01 -3.298993111E-01
 5.424621701E-01 -3.265126646E-01
 5.481070280E-01 -3.230952621E-01
 5.537393093E-01 -3.198317885E-01
 5.593577027E-01 -3.165221214E-01
 5.649608374E-01 -3.130277395E-01
 5.705474019E-01 -3.094563782E-01
 5.761160851E-01 -3.058388531E-01
 5.816655755E-01 -3.021597564E-01
 5.871946812E-01 -2.984344661E-01
 5.927020907E-01 -2.946629822E-01
 5.981865525E-01 -2.908299267E-01
 6.036469936E-01 -2.871046364E-01
 6.090819836E-01 -2.832562029E-01
 6.144904494E-01 -2.791768610E-01
 6.198713183E-01 -2.750205398E-01
 6.252234578E-01 -2.708180547E-01
 6.305457950E-01 -2.665693760E-01
 6.358372569E-01 -2.622899115E-01
 6.410969496E-01 -2.579950392E-01
 6.463238001E-01 -2.536232173E-01
 6.515168548E-01 -2.494515032E-01
 6.566750407E-01 -2.453413755E-01
 6.617975235E-01 -2.409233600E-01
 6.668834090E-01 -2.363822013E-01
 6.719318032E-01 -2.318102568E-01
 6.769419909E-01 -2.271921337E-01
 6.819131970E-01 -2.225739956E-01
 6.868446469E-01 -2.179712653E-01
 6.917357445E-01 -2.133685350E-01
 6.965857744E-01 -2.087196112E-01
 7.013940811E-01 -2.043170035E-01
 7.061598897E-01 -2.000221461E-01
 7.108826041E-01 -1.954501867E-01
 7.155616879E-01 -1.907858849E-01
 7.201966643E-01 -1.860907823E-01
 7.247869968E-01 -1.813802868E-01
 7.293322682E-01 -1.766851991E-01
 7.338320613E-01 -1.720054895E-01
 7.382860184E-01 -1.673565805E-01
 7.426938415E-01 -1.627230495E-01
 7.470550537E-01 -1.580125690E-01
 7.513694763E-01 -1.536561251E-01
 7.556365132E-01 -1.494074464E-01
 7.598559260E-01 -1.446815729E-01
 7.640274763E-01 -1.398325264E-01
 7.681511045E-01 -1.349373162E-01
 7.722266912E-01 -1.300267130E-01
 7.762541771E-01 -1.251468807E-01
 7.802335024E-01 -1.203286350E-01
 7.841645479E-01 -1.155873537E-01
 7.880474329E-01 -1.109384373E-01
 7.918820977E-01 -1.064280719E-01
 7.956685424E-01 -1.019330919E-01
 7.994068861E-01 -9.762283415E-02
 8.030970097E-01 -9.383597225E-02
 8.067386746E-01 -8.995674551E-02
 8.103320599E-01 -8.573885262E-02
 8.138772249E-01 -8.158253878E-02
 8.173744082E-01 -7.739543170E-02
 8.208237290E-01 -7.325451076E-02
 8.242253661E-01 -6.915977597E-02
 8.275795579E-01 -6.512660533E-02
 8.308865428E-01 -6.115501747E-02
 8.341464400E-01 -5.726039410E-02