# CFD data extracted (using Tecplot) by interpolating from original grid onto fixed set of points
# SST model
VARIABLES = "X","Y","uv/Uref^2"
ZONE T="CFL3D, x=1.01"
 1.009999990E+00 -2.000000000E+01 0.000000000E+00
 1.009999990E+00 -1.935783958E+01 4.166804705E-13
 1.009999990E+00 -1.873642540E+01 4.641515037E-13
 1.009999990E+00 -1.813489723E+01 4.314357573E-13
 1.009999990E+00 -1.755247307E+01 4.332812863E-13
 1.009999990E+00 -1.698842812E+01 4.397413152E-13
 1.009999990E+00 -1.644208908E+01 4.511428666E-13
 1.009999990E+00 -1.591282177E+01 4.667500652E-13
 1.009999990E+00 -1.540002155E+01 4.859762224E-13
 1.009999990E+00 -1.490311527E+01 5.082606428E-13
 1.009999990E+00 -1.442155170E+01 5.333162839E-13
 1.009999990E+00 -1.395480156E+01 5.610024164E-13
 1.009999990E+00 -1.350235271E+01 5.912658601E-13
 1.009999990E+00 -1.306371021E+01 6.240967487E-13
 1.009999990E+00 -1.263839531E+01 6.595293972E-13
 1.009999990E+00 -1.222593880E+01 6.975983918E-13
 1.009999990E+00 -1.182589436E+01 7.383253080E-13
 1.009999990E+00 -1.143781471E+01 7.818569468E-13
 1.009999990E+00 -1.106141567E+01 8.283624980E-13
 1.009999990E+00 -1.069646168E+01 8.778995868E-13
 1.009999990E+00 -1.034272861E+01 9.304729296E-13
 1.009999990E+00 -9.999948502E+00 9.862442894E-13
 1.009999990E+00 -9.667881966E+00 1.045288639E-12
 1.009999990E+00 -9.346258163E+00 1.107720686E-12
 1.009999990E+00 -9.034824371E+00 1.173655574E-12
 1.009999990E+00 -8.733310699E+00 1.243196301E-12
 1.009999990E+00 -8.441459656E+00 1.316441314E-12
 1.009999990E+00 -8.159008026E+00 1.393486780E-12
 1.009999990E+00 -7.885692596E+00 1.474424098E-12
 1.009999990E+00 -7.621260166E+00 1.559334151E-12
 1.009999990E+00 -7.365450859E+00 1.648282097E-12
 1.009999990E+00 -7.118018627E+00 1.741293850E-12
 1.009999990E+00 -6.878712177E+00 1.838745952E-12
 1.009999990E+00 -6.647291660E+00 1.945149337E-12
 1.009999990E+00 -6.423519135E+00 0.000000000E+00
 1.009999990E+00 -6.207160950E+00 2.160033220E-12
 1.009999990E+00 -5.997991562E+00 2.271577891E-12
 1.009999990E+00 -5.795789719E+00 2.388851703E-12
 1.009999990E+00 -5.600339890E+00 2.511020688E-12
 1.009999990E+00 -5.411433220E+00 2.638077257E-12
 1.009999990E+00 -5.228827953E+00 2.768423078E-12
 1.009999990E+00 -5.052223682E+00 2.900667337E-12
 1.009999990E+00 -4.881423950E+00 3.037852738E-12
 1.009999990E+00 -4.716265202E+00 3.178272966E-12
 1.009999990E+00 -4.556583405E+00 3.321465715E-12
 1.009999990E+00 -4.402204514E+00 3.467022893E-12
 1.009999990E+00 -4.252981186E+00 3.614507998E-12
 1.009999990E+00 -4.108750820E+00 3.763502097E-12
 1.009999990E+00 -3.969357491E+00 3.913431211E-12
 1.009999990E+00 -3.834659100E+00 4.063692959E-12
 1.009999990E+00 -3.704500675E+00 4.213749575E-12
 1.009999990E+00 -3.578741312E+00 4.362845155E-12
 1.009999990E+00 -3.457240820E+00 4.510364738E-12
 1.009999990E+00 -3.339855671E+00 4.655572802E-12
 1.009999990E+00 -3.226454258E+00 4.797845714E-12
 1.009999990E+00 -3.116902113E+00 4.936566347E-12
 1.009999990E+00 -3.011067867E+00 5.071024330E-12
 1.009999990E+00 -2.908826351E+00 5.200783814E-12
 1.009999990E+00 -2.810053110E+00 5.325500024E-12
 1.009999990E+00 -2.714627981E+00 5.444973899E-12
 1.009999990E+00 -2.622434855E+00 5.559139087E-12
 1.009999990E+00 -2.533361197E+00 5.668337761E-12
 1.009999990E+00 -2.447297573E+00 5.773318022E-12
 1.009999990E+00 -2.364140272E+00 5.875305884E-12
 1.009999990E+00 -2.283789158E+00 5.975817931E-12
 1.009999990E+00 -2.206146479E+00 6.076973560E-12
 1.009999990E+00 -2.131122589E+00 6.182855443E-12
 1.009999990E+00 -2.058630943E+00 6.290230923E-12
 1.009999990E+00 -1.988584638E+00 6.404285088E-12
 1.009999990E+00 -1.920913339E+00 6.554801407E-12
 1.009999990E+00 -1.855541468E+00 6.736499813E-12
 1.009999990E+00 -1.792391539E+00 6.937703884E-12
 1.009999990E+00 -1.731388450E+00 7.178515161E-12
 1.009999990E+00 -1.672460914E+00 7.474257324E-12
 1.009999990E+00 -1.615538955E+00 7.841577214E-12
 1.009999990E+00 -1.560554504E+00 8.292997365E-12
 1.009999990E+00 -1.507442951E+00 8.846207621E-12
 1.009999990E+00 -1.456141472E+00 9.521111330E-12
 1.009999990E+00 -1.406588554E+00 1.033602284E-11
 1.009999990E+00 -1.358725309E+00 1.131582762E-11
 1.009999990E+00 -1.312495232E+00 1.248588212E-11
 1.009999990E+00 -1.267842770E+00 1.387385259E-11
 1.009999990E+00 -1.224714160E+00 1.550946004E-11
 1.009999990E+00 -1.183058500E+00 1.742378117E-11
 1.009999990E+00 -1.142825365E+00 1.964982344E-11
 1.009999990E+00 -1.103965998E+00 2.222239233E-11
 1.009999990E+00 -1.066433787E+00 2.517709305E-11
 1.009999990E+00 -1.030183315E+00 2.855055602E-11
 1.009999990E+00 -9.951701760E-01 3.238059126E-11
 1.009999990E+00 -9.613518715E-01 3.670353604E-11
 1.009999990E+00 -9.286869764E-01 4.155946073E-11
 1.009999990E+00 -8.971354365E-01 4.698549189E-11
 1.009999990E+00 -8.666585088E-01 5.301830155E-11
 1.009999990E+00 -8.372187614E-01 5.969450628E-11
 1.009999990E+00 -8.087800145E-01 6.705009464E-11
 1.009999990E+00 -7.813075185E-01 7.511873068E-11
 1.009999990E+00 -7.547675371E-01 8.393265249E-11
 1.009999990E+00 -7.291278839E-01 9.352379288E-11
 1.009999990E+00 -7.043573856E-01 1.039198658E-10
 1.009999990E+00 -6.804260612E-01 1.151548440E-10
 1.009999990E+00 -6.573053598E-01 1.272354444E-10
 1.009999990E+00 -6.349676251E-01 1.402485073E-10
 1.009999990E+00 -6.133861542E-01 1.539680605E-10
 1.009999990E+00 -5.925353169E-01 1.685888651E-10
 1.009999990E+00 -5.723937154E-01 1.846205550E-10
 1.009999990E+00 -5.529382825E-01 2.015692335E-10
 1.009999990E+00 -5.341456532E-01 2.192336174E-10
 1.009999990E+00 -5.159932971E-01 2.377662511E-10
 1.009999990E+00 -4.984593987E-01 2.573297131E-10
 1.009999990E+00 -4.815229774E-01 2.779833586E-10
 1.009999990E+00 -4.651636481E-01 2.997148918E-10
 1.009999990E+00 -4.493618011E-01 3.225123779E-10
 1.009999990E+00 -4.340984523E-01 3.463868636E-10
 1.009999990E+00 -4.193552732E-01 3.713614971E-10
 1.009999990E+00 -4.051145911E-01 3.974658658E-10
 1.009999990E+00 -3.913592696E-01 4.247328322E-10
 1.009999990E+00 -3.780727983E-01 4.531958975E-10
 1.009999990E+00 -3.652392030E-01 4.828959455E-10
 1.009999990E+00 -3.528430760E-01 5.138783288E-10
 1.009999990E+00 -3.408695161E-01 5.461874286E-10
 1.009999990E+00 -3.293041289E-01 5.798836966E-10
 1.009999990E+00 -3.181329966E-01 6.150300269E-10
 1.009999990E+00 -3.073426485E-01 6.516941431E-10
 1.009999990E+00 -2.969201505E-01 6.899518734E-10
 1.009999990E+00 -2.868529260E-01 7.298836535E-10
 1.009999990E+00 -2.771288455E-01 7.715880157E-10
 1.009999990E+00 -2.677361369E-01 8.151627706E-10
 1.009999990E+00 -2.586635351E-01 8.607179414E-10
 1.009999990E+00 -2.499000579E-01 9.083709340E-10
 1.009999990E+00 -2.414351106E-01 9.582528104E-10
 1.009999990E+00 -2.332584411E-01 1.010511896E-09
 1.009999990E+00 -2.253601849E-01 1.065289967E-09
 1.009999990E+00 -2.177307606E-01 1.122760773E-09
 1.009999990E+00 -2.103609294E-01 1.183105836E-09
 1.009999990E+00 -2.032417506E-01 1.246514891E-09
 1.009999990E+00 -1.963646263E-01 1.313208764E-09
 1.009999990E+00 -1.897211969E-01 1.383420489E-09
 1.009999990E+00 -1.833034307E-01 1.457394094E-09
 1.009999990E+00 -1.771035492E-01 1.535400918E-09
 1.009999990E+00 -1.711140722E-01 1.617642131E-09
 1.009999990E+00 -1.653277576E-01 1.704093422E-09
 1.009999990E+00 -1.597376317E-01 1.794338345E-09
 1.009999990E+00 -1.543369889E-01 1.887378698E-09
 1.009999990E+00 -1.491193026E-01 1.981786291E-09
 1.009999990E+00 -1.440783441E-01 2.076203431E-09
 1.009999990E+00 -1.392080635E-01 2.169088686E-09
 1.009999990E+00 -1.345026344E-01 2.259669563E-09
 1.009999990E+00 -1.299564689E-01 2.348479855E-09
 1.009999990E+00 -1.255641431E-01 2.432495760E-09
 1.009999990E+00 -1.213204339E-01 2.513990571E-09
 1.009999990E+00 -1.172202975E-01 2.597463133E-09
 1.009999990E+00 -1.132588461E-01 0.000000000E+00
 1.009999990E+00 -1.094313934E-01 2.741458838E-09
 1.009999990E+00 -1.057334840E-01 2.812388766E-09
 1.009999990E+00 -1.021610349E-01 2.880793160E-09
 1.009999990E+00 -9.870979190E-02 2.943324029E-09
 1.009999990E+00 -9.537564218E-02 2.999776871E-09
 1.009999990E+00 -9.215459973E-02 3.052134545E-09
 1.009999990E+00 -8.904282004E-02 3.099652757E-09
 1.009999990E+00 -8.603659272E-02 3.141400917E-09
 1.009999990E+00 -8.313232660E-02 3.177618613E-09
 1.009999990E+00 -8.032655716E-02 3.208092458E-09
 1.009999990E+00 -7.761594653E-02 3.232383916E-09
 1.009999990E+00 -7.499725372E-02 3.250254732E-09
 1.009999990E+00 -7.246736437E-02 3.261467985E-09
 1.009999990E+00 -7.002326101E-02 3.265907544E-09
 1.009999990E+00 -6.766202301E-02 3.263583181E-09
 1.009999990E+00 -6.538084894E-02 3.254493119E-09
 1.009999990E+00 -6.317700446E-02 3.238802559E-09
 1.009999990E+00 -6.104788184E-02 3.216644062E-09
 1.009999990E+00 -5.899093673E-02 3.188261655E-09
 1.009999990E+00 -5.700372905E-02 3.153968198E-09
 1.009999990E+00 -5.508388579E-02 3.114057234E-09
 1.009999990E+00 -5.322912708E-02 3.069004606E-09
 1.009999990E+00 -5.143724382E-02 3.019189121E-09
 1.009999990E+00 -4.970610887E-02 2.965145240E-09
 1.009999990E+00 -4.803365469E-02 2.907349028E-09
 1.009999990E+00 -4.641790316E-02 2.846330727E-09
 1.009999990E+00 -4.485693574E-02 2.782626352E-09
 1.009999990E+00 -4.334890097E-02 2.716715075E-09
 1.009999990E+00 -4.189200699E-02 2.649154451E-09
 1.009999990E+00 -4.048452526E-02 2.580352376E-09
 1.009999990E+00 -3.912478313E-02 2.510854635E-09
 1.009999990E+00 -3.781116754E-02 2.440984304E-09
 1.009999990E+00 -3.654212132E-02 2.371253860E-09
 1.009999990E+00 -3.531615436E-02 2.301900892E-09
 1.009999990E+00 -3.413181379E-02 2.233365715E-09
 1.009999990E+00 -3.298769146E-02 2.165812862E-09
 1.009999990E+00 -3.188243136E-02 2.099610930E-09
 1.009999990E+00 -3.081471846E-02 2.034952651E-09
 1.009999990E+00 -2.978328243E-02 1.973302188E-09
 1.009999990E+00 -2.878691442E-02 1.925135162E-09
 1.009999990E+00 -2.782441489E-02 1.975204000E-09
 1.009999990E+00 -2.689462155E-02 2.727097659E-09
 1.009999990E+00 -2.599640377E-02 8.104856342E-09
 1.009999990E+00 -2.512866817E-02 3.966174233E-08
 1.009999990E+00 -2.429035865E-02 1.957784974E-07
 1.009999990E+00 -2.348043397E-02 7.940811315E-07
 1.009999990E+00 -2.269789018E-02 2.790826102E-06
 1.009999990E+00 -2.194175869E-02 9.756924555E-06
 1.009999990E+00 -2.121111006E-02 3.229838330E-05
 1.009999990E+00 -2.050504647E-02 8.576464461E-05
 1.009999990E+00 -1.982271671E-02 1.743473113E-04
 1.009999990E+00 -1.916330121E-02 2.839324588E-04
 1.009999990E+00 -1.852601953E-02 3.964729549E-04
 1.009999990E+00 -1.791011542E-02 5.040861433E-04
 1.009999990E+00 -1.731486619E-02 6.064744666E-04
 1.009999990E+00 -1.673957519E-02 7.053668960E-04
 1.009999990E+00 -1.618356816E-02 8.029108285E-04
 1.009999990E+00 -1.564619876E-02 9.025720065E-04
 1.009999990E+00 -1.512684394E-02 1.008699881E-03
 1.009999990E+00 -1.462490298E-02 1.111068530E-03
 1.009999990E+00 -1.413979195E-02 1.174900332E-03
 1.009999990E+00 -1.367094647E-02 1.235114527E-03
 1.009999990E+00 -1.321781985E-02 1.293521142E-03
 1.009999990E+00 -1.277988404E-02 1.348703168E-03
 1.009999990E+00 -1.235662960E-02 1.399733592E-03
 1.009999990E+00 -1.194756292E-02 1.446241746E-03
 1.009999990E+00 -1.155220717E-02 1.488289912E-03
 1.009999990E+00 -1.117010135E-02 1.526224194E-03
 1.009999990E+00 -1.080079935E-02 1.560691511E-03
 1.009999990E+00 -1.044387184E-02 1.592247630E-03
 1.009999990E+00 -1.009890065E-02 1.620887429E-03
 1.009999990E+00 -9.765485302E-03 1.642100513E-03
 1.009999990E+00 -9.443235584E-03 1.652624458E-03
 1.009999990E+00 -9.131776169E-03 1.665443997E-03
 1.009999990E+00 -8.830745704E-03 1.677142223E-03
 1.009999990E+00 -8.539792150E-03 1.687421231E-03
 1.009999990E+00 -8.258575574E-03 1.696297084E-03
 1.009999990E+00 -7.986768149E-03 1.703818212E-03
 1.009999990E+00 -7.724053692E-03 1.710059354E-03
 1.009999990E+00 -7.470124401E-03 1.715106890E-03
 1.009999990E+00 -7.224685047E-03 1.719050226E-03
 1.009999990E+00 -6.987449713E-03 1.721960260E-03
 1.009999990E+00 -6.758141331E-03 1.723910565E-03
 1.009999990E+00 -6.536493078E-03 1.724969479E-03
 1.009999990E+00 -6.322246511E-03 1.725203358E-03
 1.009999990E+00 -6.115152966E-03 1.724675065E-03
 1.009999990E+00 -5.914971232E-03 1.723447233E-03
 1.009999990E+00 -5.721468013E-03 1.721578650E-03
 1.009999990E+00 -5.534418393E-03 1.719133928E-03
 1.009999990E+00 -5.353605375E-03 1.716171741E-03
 1.009999990E+00 -5.178818014E-03 1.712744008E-03
 1.009999990E+00 -5.009854678E-03 1.708908239E-03
 1.009999990E+00 -4.846517928E-03 1.704718685E-03
 1.009999990E+00 -4.688618705E-03 1.700235065E-03
 1.009999990E+00 -4.535974469E-03 1.695514540E-03
 1.009999990E+00 -4.388407338E-03 1.690614619E-03
 1.009999990E+00 -4.245747346E-03 1.685598283E-03
 1.009999990E+00 -4.107828252E-03 1.680516638E-03
 1.009999990E+00 -3.974491265E-03 1.675423002E-03
 1.009999990E+00 -3.845581785E-03 1.670371857E-03
 1.009999990E+00 -3.720950801E-03 1.665420365E-03
 1.009999990E+00 -3.600454656E-03 1.660619979E-03
 1.009999990E+00 -3.483953886E-03 1.656014472E-03
 1.009999990E+00 -3.371314146E-03 1.651652390E-03
 1.009999990E+00 -3.262405749E-03 1.647582278E-03
 1.009999990E+00 -3.157103201E-03 1.643852214E-03
 1.009999990E+00 -3.055284964E-03 1.640502946E-03
 1.009999990E+00 -2.956833923E-03 1.637587324E-03
 1.009999990E+00 -2.861637156E-03 1.635155641E-03
 1.009999990E+00 -2.769585000E-03 1.633256557E-03
 1.009999990E+00 -2.680571983E-03 1.631937455E-03
 1.009999990E+00 -2.594495658E-03 1.631245366E-03
 1.009999990E+00 -2.511257771E-03 1.631235471E-03
 1.009999990E+00 -2.430762630E-03 1.631939085E-03
 1.009999990E+00 -2.352918033E-03 1.633393462E-03
 1.009999990E+00 -2.277635271E-03 1.635626890E-03
 1.009999990E+00 -2.204828197E-03 1.638661022E-03
 1.009999990E+00 -2.134413458E-03 1.642506453E-03
 1.009999990E+00 -2.066311194E-03 1.647164230E-03
 1.009999990E+00 -2.000443172E-03 1.652620267E-03
 1.009999990E+00 -1.936735003E-03 1.658842899E-03
 1.009999990E+00 -1.875113929E-03 1.665792079E-03
 1.009999990E+00 -1.815509866E-03 1.673397492E-03
 1.009999990E+00 -1.757855178E-03 1.681580208E-03
 1.009999990E+00 -1.702084555E-03 1.690245932E-03
 1.009999990E+00 -1.648134785E-03 1.699281274E-03
 1.009999990E+00 -1.595944748E-03 1.708558993E-03
 1.009999990E+00 -1.545455540E-03 1.717943931E-03
 1.009999990E+00 -1.496609999E-03 1.727287192E-03
 1.009999990E+00 -1.449353062E-03 1.736435690E-03
 1.009999990E+00 -1.403631642E-03 1.745236572E-03
 1.009999990E+00 -1.359393937E-03 1.753530116E-03
 1.009999990E+00 -1.316590584E-03 1.761163818E-03
 1.009999990E+00 -1.275173272E-03 1.767992158E-03
 1.009999990E+00 -1.235095784E-03 1.773882774E-03
 1.009999990E+00 -1.196312951E-03 1.778707607E-03
 1.009999990E+00 -1.158781582E-03 1.782355481E-03
 1.009999990E+00 -1.122459769E-03 1.784728607E-03
 1.009999990E+00 -1.087306882E-03 1.785747008E-03
 1.009999990E+00 -1.053283806E-03 1.785347005E-03
 1.009999990E+00 -1.020352705E-03 1.783482032E-03
 1.009999990E+00 -9.884770261E-04 1.780122984E-03
 1.009999990E+00 -9.576214361E-04 1.775256475E-03
 1.009999990E+00 -9.277517092E-04 1.768883783E-03
 1.009999990E+00 -8.988348418E-04 1.761021209E-03
 1.009999990E+00 -8.708388777E-04 1.751697389E-03
 1.009999990E+00 -8.437330252E-04 1.740952488E-03
 1.009999990E+00 -8.174874238E-04 1.728836331E-03
 1.009999990E+00 -7.920732605E-04 1.715408172E-03
 1.009999990E+00 -7.674626540E-04 1.700732741E-03
 1.009999990E+00 -7.436286542E-04 1.684877439E-03
 1.009999990E+00 -7.205452421E-04 1.667923876E-03
 1.009999990E+00 -6.981872721E-04 1.649949001E-03
 1.009999990E+00 -6.765303551E-04 1.631033374E-03
 1.009999990E+00 -6.555509754E-04 1.611259999E-03
 1.009999990E+00 -6.352264318E-04 1.590708853E-03
 1.009999990E+00 -6.155346637E-04 1.569462591E-03
 1.009999990E+00 -5.964544252E-04 1.547600841E-03
 1.009999990E+00 -5.779651692E-04 1.525202184E-03
 1.009999990E+00 -5.600470467E-04 1.502341009E-03
 1.009999990E+00 -5.426807911E-04 1.479087980E-03
 1.009999990E+00 -5.258478341E-04 1.455515274E-03
 1.009999990E+00 -5.095301894E-04 1.431687619E-03
 1.009999990E+00 -4.937105114E-04 1.407667180E-03
 1.009999990E+00 -4.783718905E-04 1.383514726E-03
 1.009999990E+00 -4.634981742E-04 1.359284273E-03
 1.009999990E+00 -4.490735591E-04 1.335024950E-03
 1.009999990E+00 -4.350828531E-04 1.310786000E-03
 1.009999990E+00 -4.215113586E-04 1.286613755E-03
 1.009999990E+00 -4.083447857E-04 1.262544189E-03
 1.009999990E+00 -3.955693974E-04 1.238620258E-03
 1.009999990E+00 -3.831718350E-04 1.214867923E-03
 1.009999990E+00 -3.711392346E-04 1.191319549E-03
 1.009999990E+00 -3.594591108E-04 1.168004121E-03
 1.009999990E+00 -3.481193271E-04 1.144941198E-03
 1.009999990E+00 -3.371082421E-04 1.122154063E-03
 1.009999990E+00 -3.264145344E-04 1.099664252E-03
 1.009999990E+00 -3.160272317E-04 1.077485387E-03
 1.009999990E+00 -3.059357114E-04 1.055628411E-03
 1.009999990E+00 -2.961296996E-04 1.034103916E-03
 1.009999990E+00 -2.865992719E-04 1.012922730E-03
 1.009999990E+00 -2.773347951E-04 9.920942830E-04
 1.009999990E+00 -2.683268976E-04 9.716220084E-04
 1.009999990E+00 -2.595665574E-04 9.515110287E-04
 1.009999990E+00 -2.510449849E-04 9.317614022E-04
 1.009999990E+00 -2.427537402E-04 9.123735363E-04
 1.009999990E+00 -2.346845286E-04 8.933490026E-04
 1.009999990E+00 -2.268294047E-04 8.746880339E-04
 1.009999990E+00 -2.191806125E-04 8.563853917E-04
 1.009999990E+00 -2.117306431E-04 8.384392713E-04
 1.009999990E+00 -2.044722060E-04 8.208452491E-04
 1.009999990E+00 -1.973982435E-04 8.035965147E-04
 1.009999990E+00 -1.905019017E-04 7.866928354E-04
 1.009999990E+00 -1.837765012E-04 7.701253053E-04
 1.009999990E+00 -1.772155811E-04 7.538853679E-04
 1.009999990E+00 -1.708128548E-04 7.379680173E-04
 1.009999990E+00 -1.645622397E-04 7.223641151E-04
 1.009999990E+00 -1.584577694E-04 7.070694701E-04
 1.009999990E+00 -1.524936815E-04 6.920752930E-04
 1.009999990E+00 -1.466643589E-04 6.773729110E-04
 1.009999990E+00 -1.409643592E-04 6.629523705E-04
 1.009999990E+00 -1.353883417E-04 6.488081999E-04
 1.009999990E+00 -1.299311552E-04 6.349296309E-04
 1.009999990E+00 -1.245877211E-04 6.213080487E-04
 1.009999990E+00 -1.193531352E-04 6.079346058E-04
 1.009999990E+00 -1.142226029E-04 5.948006292E-04
 1.009999990E+00 -1.091914455E-04 5.818986101E-04
 1.009999990E+00 -1.042550866E-04 5.692202249E-04
 1.009999990E+00 -9.940905875E-05 5.567535409E-04
 1.009999990E+00 -9.464901086E-05 5.444902345E-04
 1.009999990E+00 -8.997067198E-05 5.324241356E-04
 1.009999990E+00 -8.536985843E-05 5.205443595E-04
 1.009999990E+00 -8.084248839E-05 5.088423495E-04
 1.009999990E+00 -7.638454554E-05 4.973094328E-04
 1.009999990E+00 -7.199210813E-05 4.859381297E-04
 1.009999990E+00 -6.766131264E-05 4.747188941E-04
 1.009999990E+00 -6.338836829E-05 4.636416270E-04
 1.009999990E+00 -5.916956070E-05 4.527001583E-04
 1.009999990E+00 -5.500121188E-05 4.418854369E-04
 1.009999990E+00 -5.087972022E-05 4.311885568E-04
 1.009999990E+00 -4.680152415E-05 4.206025042E-04
 1.009999990E+00 -4.276312029E-05 4.101171799E-04
 1.009999990E+00 -3.876104165E-05 3.997249878E-04
 1.009999990E+00 -3.479186489E-05 3.894188267E-04
 1.009999990E+00 -3.085220305E-05 3.791899071E-04
 1.009999990E+00 -2.693869828E-05 3.690301382E-04
 1.009999990E+00 -2.304802729E-05 3.589314292E-04
 1.009999990E+00 -1.917689042E-05 3.488852526E-04
 1.009999990E+00 -1.532200804E-05 3.388844780E-04
 1.009999990E+00 -1.148011779E-05 3.289219167E-04
 1.009999990E+00 -7.647975508E-06 3.189875861E-04
 1.009999990E+00 -3.822345661E-06 3.049593070E-04
 1.009999990E+00 0.000000000E+00 2.991912770E-04
 1.009999990E+00 3.822347935E-06 2.934147196E-04
 1.009999990E+00 7.647980055E-06 2.793913591E-04
 1.009999990E+00 1.148012416E-05 2.694882860E-04
 1.009999990E+00 1.532201532E-05 2.595681872E-04
 1.009999990E+00 1.917690133E-05 2.496237576E-04
 1.009999990E+00 2.304804002E-05 2.396468772E-04
 1.009999990E+00 2.693871284E-05 2.296294551E-04
 1.009999990E+00 3.085221761E-05 2.195641282E-04
 1.009999990E+00 3.479188308E-05 2.094431693E-04
 1.009999990E+00 3.876106348E-05 1.992589096E-04
 1.009999990E+00 4.276314212E-05 1.890034036E-04
 1.009999990E+00 4.680154962E-05 1.786689099E-04
 1.009999990E+00 5.087974569E-05 1.682474540E-04
 1.009999990E+00 5.500124098E-05 1.577313233E-04
 1.009999990E+00 5.916958980E-05 1.471128344E-04
 1.009999990E+00 6.338840467E-05 1.363838237E-04
 1.009999990E+00 6.766134902E-05 1.255363313E-04
 1.009999990E+00 7.199214451E-05 1.145624556E-04
 1.009999990E+00 7.638458919E-05 1.034542511E-04
 1.009999990E+00 8.084253204E-05 9.220348147E-05
 1.009999990E+00 8.536990208E-05 8.080203406E-05
 1.009999990E+00 8.997071563E-05 6.924203626E-05
 1.009999990E+00 9.464906179E-05 5.751515710E-05
 1.009999990E+00 9.940911696E-05 4.561286551E-05
 1.009999990E+00 1.042551376E-04 3.352748172E-05
 1.009999990E+00 1.091915037E-04 2.125095671E-05
 1.009999990E+00 1.142226683E-04 8.774235539E-06
 1.009999990E+00 1.193532007E-04 -3.910826308E-06
 1.009999990E+00 1.245877793E-04 -1.681211143E-05
 1.009999990E+00 1.299312280E-04 -2.993803537E-05
 1.009999990E+00 1.353884290E-04 -4.329663352E-05
 1.009999990E+00 1.409644319E-04 -5.689607133E-05
 1.009999990E+00 1.466644462E-04 -7.074557652E-05
 1.009999990E+00 1.524937543E-04 -8.485199942E-05
 1.009999990E+00 1.584578567E-04 -9.922419122E-05
 1.009999990E+00 1.645623270E-04 -1.138703810E-04
 1.009999990E+00 1.708129566E-04 -1.287988416E-04
 1.009999990E+00 1.772156829E-04 -1.440159394E-04
 1.009999990E+00 1.837766031E-04 -1.595303329E-04
 1.009999990E+00 1.905020035E-04 -1.753483230E-04
 1.009999990E+00 1.973983599E-04 -1.914783788E-04
 1.009999990E+00 2.044723224E-04 -2.079290280E-04
 1.009999990E+00 2.117307595E-04 -2.247047523E-04
 1.009999990E+00 2.191807289E-04 -2.418129297E-04
 1.009999990E+00 2.268295357E-04 -2.592602395E-04
 1.009999990E+00 2.346846741E-04 -2.770518186E-04
 1.009999990E+00 2.427538711E-04 -2.951947972E-04
 1.009999990E+00 2.510451304E-04 -3.136935120E-04
 1.009999990E+00 2.595667029E-04 -3.325517755E-04
 1.009999990E+00 2.683270432E-04 -3.517738660E-04
 1.009999990E+00 2.773349406E-04 -3.713649639E-04
 1.009999990E+00 2.865994466E-04 -3.913272812E-04
 1.009999990E+00 2.961298742E-04 -4.116643977E-04
 1.009999990E+00 3.059358860E-04 -4.323767789E-04
 1.009999990E+00 3.160274064E-04 -4.534641048E-04
 1.009999990E+00 3.264147381E-04 -4.749268992E-04
 1.009999990E+00 3.371084458E-04 -4.967657733E-04
 1.009999990E+00 3.481195308E-04 -5.189807271E-04
 1.009999990E+00 3.594593145E-04 -5.415665219E-04
 1.009999990E+00 3.711394675E-04 -5.645180354E-04
 1.009999990E+00 3.831720969E-04 -5.878331140E-04
 1.009999990E+00 3.955696302E-04 -6.115041906E-04
 1.009999990E+00 4.083450476E-04 -6.355222431E-04
 1.009999990E+00 4.215116205E-04 -6.598835462E-04
 1.009999990E+00 4.350831150E-04 -6.845737225E-04
 1.009999990E+00 4.490738502E-04 -7.095844485E-04
 1.009999990E+00 4.634984653E-04 -7.349009393E-04
 1.009999990E+00 4.783722106E-04 -7.605071296E-04
 1.009999990E+00 4.937108024E-04 -7.863886422E-04
 1.009999990E+00 5.095305387E-04 -8.125289460E-04
 1.009999990E+00 5.258481833E-04 -8.389064460E-04
 1.009999990E+00 5.426811404E-04 -8.655006532E-04
 1.009999990E+00 5.600473960E-04 -8.922896232E-04
 1.009999990E+00 5.779655767E-04 -9.192462312E-04
 1.009999990E+00 5.964548327E-04 -9.463456227E-04
 1.009999990E+00 6.155350711E-04 -9.735607891E-04
 1.009999990E+00 6.352268392E-04 -1.000860822E-03
 1.009999990E+00 6.555513828E-04 -1.028213883E-03
 1.009999990E+00 6.765308208E-04 -1.055585803E-03
 1.009999990E+00 6.981877377E-04 -1.082944218E-03
 1.009999990E+00 7.205457659E-04 -1.110249548E-03
 1.009999990E+00 7.436291780E-04 -1.137463842E-03
 1.009999990E+00 7.674631779E-04 -1.164549962E-03
 1.009999990E+00 7.920737844E-04 -1.191469724E-03
 1.009999990E+00 8.174880059E-04 -1.218178426E-03
 1.009999990E+00 8.437336073E-04 -1.244636253E-03
 1.009999990E+00 8.708394598E-04 -1.270799199E-03
 1.009999990E+00 8.988354239E-04 -1.296626870E-03
 1.009999990E+00 9.277523495E-04 -1.322077936E-03
 1.009999990E+00 9.576220764E-04 -1.347109908E-03
 1.009999990E+00 9.884777246E-04 -1.371682738E-03
 1.009999990E+00 1.020353404E-03 -1.395755797E-03
 1.009999990E+00 1.053284504E-03 -1.419294393E-03
 1.009999990E+00 1.087307581E-03 -1.442262670E-03
 1.009999990E+00 1.122460468E-03 -1.464627683E-03
 1.009999990E+00 1.158782397E-03 -1.486360678E-03
 1.009999990E+00 1.196313766E-03 -1.507436507E-03
 1.009999990E+00 1.235096599E-03 -1.527833752E-03
 1.009999990E+00 1.275174203E-03 -1.547539141E-03
 1.009999990E+00 1.316591515E-03 -1.566541381E-03
 1.009999990E+00 1.359394984E-03 -1.584832557E-03
 1.009999990E+00 1.403632574E-03 -1.602412667E-03
 1.009999990E+00 1.449354109E-03 -1.619287883E-03
 1.009999990E+00 1.496611047E-03 -1.635471592E-03
 1.009999990E+00 1.545456587E-03 -1.650982536E-03
 1.009999990E+00 1.595945912E-03 -1.665846677E-03
 1.009999990E+00 1.648136065E-03 -1.680096379E-03
 1.009999990E+00 1.702085836E-03 -1.693769707E-03
 1.009999990E+00 1.757856458E-03 -1.706910552E-03
 1.009999990E+00 1.815511147E-03 -1.719568041E-03
 1.009999990E+00 1.875115326E-03 -1.731796656E-03
 1.009999990E+00 1.936736517E-03 -1.743653789E-03
 1.009999990E+00 2.000444802E-03 -1.755194506E-03
 1.009999990E+00 2.066312591E-03 -1.766488538E-03
 1.009999990E+00 2.134415088E-03 -1.777601079E-03
 1.009999990E+00 2.204829827E-03 -1.788596623E-03
 1.009999990E+00 2.277636901E-03 -1.799537335E-03
 1.009999990E+00 2.352919895E-03 -1.810485148E-03
 1.009999990E+00 2.430764493E-03 -1.821498736E-03
 1.009999990E+00 2.511259634E-03 -1.832631766E-03
 1.009999990E+00 2.594497753E-03 -1.843934064E-03
 1.009999990E+00 2.680574078E-03 -1.855454291E-03
 1.009999990E+00 2.769587096E-03 -1.867226325E-03
 1.009999990E+00 2.861639485E-03 -1.879282063E-03
 1.009999990E+00 2.956836252E-03 -1.891644555E-03
 1.009999990E+00 3.055287292E-03 -1.904331381E-03
 1.009999990E+00 3.157105530E-03 -1.917350222E-03
 1.009999990E+00 3.262408311E-03 -1.930698287E-03
 1.009999990E+00 3.371316940E-03 -1.944376621E-03
 1.009999990E+00 3.483956680E-03 -1.958373934E-03
 1.009999990E+00 3.600457450E-03 -1.972671831E-03
 1.009999990E+00 3.720953828E-03 -1.987245865E-03
 1.009999990E+00 3.845584812E-03 -2.002073685E-03
 1.009999990E+00 3.974494524E-03 -2.017119899E-03
 1.009999990E+00 4.107831512E-03 -2.032338874E-03
 1.009999990E+00 4.245750606E-03 -2.047688002E-03
 1.009999990E+00 4.388411064E-03 -2.063120948E-03
 1.009999990E+00 4.535978194E-03 -2.078596735E-03
 1.009999990E+00 4.688622896E-03 -2.094056690E-03
 1.009999990E+00 4.846522119E-03 -2.109448891E-03
 1.009999990E+00 5.009858869E-03 -2.124720719E-03
 1.009999990E+00 5.178822670E-03 -2.139811870E-03
 1.009999990E+00 5.353610031E-03 -2.154673683E-03
 1.009999990E+00 5.534423050E-03 -2.169249812E-03
 1.009999990E+00 5.721473135E-03 -2.183490666E-03
 1.009999990E+00 5.914976355E-03 -2.197331050E-03
 1.009999990E+00 6.115158554E-03 -2.210700186E-03
 1.009999990E+00 6.322252564E-03 -2.223530551E-03
 1.009999990E+00 6.536499131E-03 -2.235745313E-03
 1.009999990E+00 6.758147385E-03 -2.247261349E-03
 1.009999990E+00 6.987456232E-03 -2.257987857E-03
 1.009999990E+00 7.224692032E-03 -2.267828910E-03
 1.009999990E+00 7.470131386E-03 -2.276684623E-03
 1.009999990E+00 7.724061143E-03 -2.284472343E-03
 1.009999990E+00 7.986776531E-03 -2.291081706E-03
 1.009999990E+00 8.258583955E-03 -2.296557184E-03
 1.009999990E+00 8.539800532E-03 -2.303464338E-03
 1.009999990E+00 8.830755018E-03 -2.304940950E-03
 1.009999990E+00 9.131785482E-03 -2.296937397E-03
 1.009999990E+00 9.443244897E-03 -2.284409944E-03
 1.009999990E+00 9.765495546E-03 -2.269529970E-03
 1.009999990E+00 1.009891182E-02 -2.251928207E-03
 1.009999990E+00 1.044388302E-02 -2.231049817E-03
 1.009999990E+00 1.080081146E-02 -2.206391189E-03
 1.009999990E+00 1.117011346E-02 -2.177569782E-03
 1.009999990E+00 1.155222021E-02 -2.144303638E-03
 1.009999990E+00 1.194757689E-02 -2.106124535E-03
 1.009999990E+00 1.235664450E-02 -2.062605228E-03
 1.009999990E+00 1.277989987E-02 -2.013335936E-03
 1.009999990E+00 1.321783569E-02 -1.958102686E-03
 1.009999990E+00 1.367096324E-02 -1.897001755E-03
 1.009999990E+00 1.413981058E-02 -1.830706722E-03
 1.009999990E+00 1.462492254E-02 -1.760657644E-03
 1.009999990E+00 1.512686349E-02 -1.687983517E-03
 1.009999990E+00 1.564621925E-02 -1.590853557E-03
 1.009999990E+00 1.618359052E-02 -1.454231911E-03
 1.009999990E+00 1.673959941E-02 -1.316178357E-03
 1.009999990E+00 1.731489226E-02 -1.185359899E-03
 1.009999990E+00 1.791014336E-02 -1.055900590E-03
 1.009999990E+00 1.852604933E-02 -9.236572660E-04
 1.009999990E+00 1.916333288E-02 -7.864679210E-04
 1.009999990E+00 1.982275024E-02 -6.434725947E-04
 1.009999990E+00 2.050508372E-02 -4.958928330E-04
 1.009999990E+00 2.121114731E-02 -3.498327569E-04
 1.009999990E+00 2.194179967E-02 -2.182871831E-04
 1.009999990E+00 2.269793302E-02 -1.166960283E-04
 1.009999990E+00 2.348048054E-02 -5.276386582E-05
 1.009999990E+00 2.429040708E-02 -2.137639058E-05
 1.009999990E+00 2.512871847E-02 -8.735220945E-06
 1.009999990E+00 2.599645779E-02 -3.876695700E-06
 1.009999990E+00 2.689467557E-02 -1.605926059E-06
 1.009999990E+00 2.782447077E-02 -5.621197374E-07
 1.009999990E+00 2.878697403E-02 -1.672576957E-07
 1.009999990E+00 2.978334390E-02 -4.604750714E-08
 1.009999990E+00 3.081477992E-02 -1.334872302E-08
 1.009999990E+00 3.188249841E-02 -5.384090507E-09
 1.009999990E+00 3.298775852E-02 -3.626890788E-09
 1.009999990E+00 3.413188085E-02 -3.319092334E-09
 1.009999990E+00 3.531622514E-02 -3.327680576E-09
 1.009999990E+00 3.654219210E-02 -3.401819937E-09
 1.009999990E+00 3.781123832E-02 -3.489045941E-09
 1.009999990E+00 3.912485763E-02 -3.578870533E-09
 1.009999990E+00 4.048459977E-02 -3.668727766E-09
 1.009999990E+00 4.189208150E-02 -3.757812284E-09
 1.009999990E+00 4.334897920E-02 -3.845329832E-09
 1.009999990E+00 4.485701397E-02 -3.930726855E-09
 1.009999990E+00 4.641798139E-02 -4.013335442E-09
 1.009999990E+00 4.803373292E-02 -4.092651995E-09
 1.009999990E+00 4.970618710E-02 -4.168201784E-09
 1.009999990E+00 5.143732578E-02 -4.239606888E-09
 1.009999990E+00 5.322920904E-02 -4.306638601E-09
 1.009999990E+00 5.508396775E-02 -4.369048234E-09