# CFD data extracted (using Tecplot) by interpolating from original grid onto fixed set of points
# SST model
VARIABLES = "X","Y","u/Uref"
ZONE T="CFL3D, x=1.01"
 1.009999990E+00 -2.000000000E+01 9.999356866E-01
 1.009999990E+00 -1.935783958E+01 9.999039769E-01
 1.009999990E+00 -1.873642540E+01 9.998532534E-01
 1.009999990E+00 -1.813489723E+01 9.998123646E-01
 1.009999990E+00 -1.755247307E+01 9.997734427E-01
 1.009999990E+00 -1.698842812E+01 9.997361302E-01
 1.009999990E+00 -1.644208908E+01 9.997001290E-01
 1.009999990E+00 -1.591282177E+01 9.996649027E-01
 1.009999990E+00 -1.540002155E+01 9.996303320E-01
 1.009999990E+00 -1.490311527E+01 9.995959997E-01
 1.009999990E+00 -1.442155170E+01 9.995617867E-01
 1.009999990E+00 -1.395480156E+01 9.995276928E-01
 1.009999990E+00 -1.350235271E+01 9.994935393E-01
 1.009999990E+00 -1.306371021E+01 9.994592071E-01
 1.009999990E+00 -1.263839531E+01 9.994246364E-01
 1.009999990E+00 -1.222593880E+01 9.993897080E-01
 1.009999990E+00 -1.182589436E+01 9.993544817E-01
 1.009999990E+00 -1.143781471E+01 9.993185401E-01
 1.009999990E+00 -1.106141567E+01 9.992823005E-01
 1.009999990E+00 -1.069646168E+01 9.992453456E-01
 1.009999990E+00 -1.034272861E+01 9.992079735E-01
 1.009999990E+00 -9.999948502E+00 9.991699457E-01
 1.009999990E+00 -9.667881966E+00 9.991312027E-01
 1.009999990E+00 -9.346258163E+00 9.990919232E-01
 1.009999990E+00 -9.034824371E+00 9.990518689E-01
 1.009999990E+00 -8.733310699E+00 9.990111589E-01
 1.009999990E+00 -8.441459656E+00 9.989697337E-01
 1.009999990E+00 -8.159008026E+00 9.989276528E-01
 1.009999990E+00 -7.885692596E+00 9.988846183E-01
 1.009999990E+00 -7.621260166E+00 9.988411069E-01
 1.009999990E+00 -7.365450859E+00 9.987968206E-01
 1.009999990E+00 -7.118018627E+00 9.987516999E-01
 1.009999990E+00 -6.878712177E+00 9.987059236E-01
 1.009999990E+00 -6.647291660E+00 9.986594319E-01
 1.009999990E+00 -6.423519135E+00 9.986122847E-01
 1.009999990E+00 -6.207160950E+00 9.985642433E-01
 1.009999990E+00 -5.997991562E+00 9.985156059E-01
 1.009999990E+00 -5.795789719E+00 9.984663129E-01
 1.009999990E+00 -5.600339890E+00 9.984163642E-01
 1.009999990E+00 -5.411433220E+00 9.983658195E-01
 1.009999990E+00 -5.228827953E+00 9.983146787E-01
 1.009999990E+00 -5.052223682E+00 9.982628822E-01
 1.009999990E+00 -4.881423950E+00 9.982106090E-01
 1.009999990E+00 -4.716265202E+00 9.981578588E-01
 1.009999990E+00 -4.556583405E+00 9.981045723E-01
 1.009999990E+00 -4.402204514E+00 9.980509281E-01
 1.009999990E+00 -4.252981186E+00 9.979968667E-01
 1.009999990E+00 -4.108750820E+00 9.979425669E-01
 1.009999990E+00 -3.969357491E+00 9.978881478E-01
 1.009999990E+00 -3.834659100E+00 9.978335500E-01
 1.009999990E+00 -3.704500675E+00 9.977788925E-01
 1.009999990E+00 -3.578741312E+00 9.977241755E-01
 1.009999990E+00 -3.457240820E+00 9.976696372E-01
 1.009999990E+00 -3.339855671E+00 9.976152778E-01
 1.009999990E+00 -3.226454258E+00 9.975610971E-01
 1.009999990E+00 -3.116902113E+00 9.975073338E-01
 1.009999990E+00 -3.011067867E+00 9.974538684E-01
 1.009999990E+00 -2.908826351E+00 9.974009991E-01
 1.009999990E+00 -2.810053110E+00 9.973486662E-01
 1.009999990E+00 -2.714627981E+00 9.972969890E-01
 1.009999990E+00 -2.622434855E+00 9.972459674E-01
 1.009999990E+00 -2.533361197E+00 9.971957207E-01
 1.009999990E+00 -2.447297573E+00 9.971462488E-01
 1.009999990E+00 -2.364140272E+00 9.970976114E-01
 1.009999990E+00 -2.283789158E+00 9.970498085E-01
 1.009999990E+00 -2.206146479E+00 9.970028400E-01
 1.009999990E+00 -2.131122589E+00 9.969567060E-01
 1.009999990E+00 -2.058630943E+00 9.969113469E-01
 1.009999990E+00 -1.988584638E+00 9.968669415E-01
 1.009999990E+00 -1.920913339E+00 9.968230724E-01
 1.009999990E+00 -1.855541468E+00 9.967796206E-01
 1.009999990E+00 -1.792391539E+00 9.967363477E-01
 1.009999990E+00 -1.731388450E+00 9.966933131E-01
 1.009999990E+00 -1.672460914E+00 9.966502786E-01
 1.009999990E+00 -1.615538955E+00 9.966067672E-01
 1.009999990E+00 -1.560554504E+00 9.965626001E-01
 1.009999990E+00 -1.507442951E+00 9.965174198E-01
 1.009999990E+00 -1.456141472E+00 9.964706302E-01
 1.009999990E+00 -1.406588554E+00 9.964218736E-01
 1.009999990E+00 -1.358725309E+00 9.963705540E-01
 1.009999990E+00 -1.312495232E+00 9.963162541E-01
 1.009999990E+00 -1.267842770E+00 9.962581992E-01
 1.009999990E+00 -1.224714160E+00 9.961957932E-01
 1.009999990E+00 -1.183058500E+00 9.961283207E-01
 1.009999990E+00 -1.142825365E+00 9.960551262E-01
 1.009999990E+00 -1.103965998E+00 9.959753156E-01
 1.009999990E+00 -1.066433787E+00 9.958881140E-01
 1.009999990E+00 -1.030183315E+00 9.957927465E-01
 1.009999990E+00 -9.951701760E-01 9.956884384E-01
 1.009999990E+00 -9.613518715E-01 9.955742955E-01
 1.009999990E+00 -9.286869764E-01 9.954494238E-01
 1.009999990E+00 -8.971354365E-01 9.953130484E-01
 1.009999990E+00 -8.666585088E-01 9.951644540E-01
 1.009999990E+00 -8.372187614E-01 9.950027466E-01
 1.009999990E+00 -8.087800145E-01 9.948271513E-01
 1.009999990E+00 -7.813075185E-01 9.946370125E-01
 1.009999990E+00 -7.547675371E-01 9.944316149E-01
 1.009999990E+00 -7.291278839E-01 9.942103028E-01
 1.009999990E+00 -7.043573856E-01 9.939725995E-01
 1.009999990E+00 -6.804260612E-01 9.937179685E-01
 1.009999990E+00 -6.573053598E-01 9.934459329E-01
 1.009999990E+00 -6.349676251E-01 9.931560755E-01
 1.009999990E+00 -6.133861542E-01 9.928483963E-01
 1.009999990E+00 -5.925353169E-01 9.925231338E-01
 1.009999990E+00 -5.723937154E-01 9.921793342E-01
 1.009999990E+00 -5.529382825E-01 9.918160439E-01
 1.009999990E+00 -5.341456532E-01 9.914338589E-01
 1.009999990E+00 -5.159932971E-01 9.910335541E-01
 1.009999990E+00 -4.984593987E-01 9.906155467E-01
 1.009999990E+00 -4.815229774E-01 9.901797175E-01
 1.009999990E+00 -4.651636481E-01 9.897262454E-01
 1.009999990E+00 -4.493618011E-01 9.892553687E-01
 1.009999990E+00 -4.340984523E-01 9.887673855E-01
 1.009999990E+00 -4.193552732E-01 9.882627130E-01
 1.009999990E+00 -4.051145911E-01 9.877418876E-01
 1.009999990E+00 -3.913592696E-01 9.872055054E-01
 1.009999990E+00 -3.780727983E-01 9.866538644E-01
 1.009999990E+00 -3.652392030E-01 9.860876203E-01
 1.009999990E+00 -3.528430760E-01 9.855073690E-01
 1.009999990E+00 -3.408695161E-01 9.849137068E-01
 1.009999990E+00 -3.293041289E-01 9.843071103E-01
 1.009999990E+00 -3.181329966E-01 9.836882949E-01
 1.009999990E+00 -3.073426485E-01 9.830578566E-01
 1.009999990E+00 -2.969201505E-01 9.824164510E-01
 1.009999990E+00 -2.868529260E-01 9.817644954E-01
 1.009999990E+00 -2.771288455E-01 9.811027050E-01
 1.009999990E+00 -2.677361369E-01 9.804316163E-01
 1.009999990E+00 -2.586635351E-01 9.797518849E-01
 1.009999990E+00 -2.499000579E-01 9.790641069E-01
 1.009999990E+00 -2.414351106E-01 9.783686399E-01
 1.009999990E+00 -2.332584411E-01 9.776661992E-01
 1.009999990E+00 -2.253601849E-01 9.769572020E-01
 1.009999990E+00 -2.177307606E-01 9.762421846E-01
 1.009999990E+00 -2.103609294E-01 9.755216241E-01
 1.009999990E+00 -2.032417506E-01 9.747960567E-01
 1.009999990E+00 -1.963646263E-01 9.740657210E-01
 1.009999990E+00 -1.897211969E-01 9.733313322E-01
 1.009999990E+00 -1.833034307E-01 9.725931287E-01
 1.009999990E+00 -1.771035492E-01 9.718515277E-01
 1.009999990E+00 -1.711140722E-01 9.711069465E-01
 1.009999990E+00 -1.653277576E-01 9.703596830E-01
 1.009999990E+00 -1.597376317E-01 9.696100354E-01
 1.009999990E+00 -1.543369889E-01 9.688585401E-01
 1.009999990E+00 -1.491193026E-01 9.681053162E-01
 1.009999990E+00 -1.440783441E-01 9.673507214E-01
 1.009999990E+00 -1.392080635E-01 9.665951133E-01
 1.009999990E+00 -1.345026344E-01 9.658386111E-01
 1.009999990E+00 -1.299564689E-01 9.650816917E-01
 1.009999990E+00 -1.255641431E-01 9.643245935E-01
 1.009999990E+00 -1.213204339E-01 9.635671377E-01
 1.009999990E+00 -1.172202975E-01 9.628108144E-01
 1.009999990E+00 -1.132588461E-01 9.620558023E-01
 1.009999990E+00 -1.094313934E-01 9.612986445E-01
 1.009999990E+00 -1.057334840E-01 9.605433345E-01
 1.009999990E+00 -1.021610349E-01 9.597893953E-01
 1.009999990E+00 -9.870979190E-02 9.590359330E-01
 1.009999990E+00 -9.537564218E-02 9.582841992E-01
 1.009999990E+00 -9.215459973E-02 9.575344324E-01
 1.009999990E+00 -8.904282004E-02 9.567865729E-01
 1.009999990E+00 -8.603659272E-02 9.560407996E-01
 1.009999990E+00 -8.313232660E-02 9.552972913E-01
 1.009999990E+00 -8.032655716E-02 9.545561075E-01
 1.009999990E+00 -7.761594653E-02 9.538172483E-01
 1.009999990E+00 -7.499725372E-02 9.530809522E-01
 1.009999990E+00 -7.246736437E-02 9.523472190E-01
 1.009999990E+00 -7.002326101E-02 9.516161084E-01
 1.009999990E+00 -6.766202301E-02 9.508879781E-01
 1.009999990E+00 -6.538084894E-02 9.501627088E-01
 1.009999990E+00 -6.317700446E-02 9.494405389E-01
 1.009999990E+00 -6.104788184E-02 9.487215877E-01
 1.009999990E+00 -5.899093673E-02 9.480058551E-01
 1.009999990E+00 -5.700372905E-02 9.472934604E-01
 1.009999990E+00 -5.508388579E-02 9.465845227E-01
 1.009999990E+00 -5.322912708E-02 9.458792210E-01
 1.009999990E+00 -5.143724382E-02 9.451773763E-01
 1.009999990E+00 -4.970610887E-02 9.444794059E-01
 1.009999990E+00 -4.803365469E-02 9.437851906E-01
 1.009999990E+00 -4.641790316E-02 9.430949092E-01
 1.009999990E+00 -4.485693574E-02 9.424086213E-01
 1.009999990E+00 -4.334890097E-02 9.417263865E-01
 1.009999990E+00 -4.189200699E-02 9.410484433E-01
 1.009999990E+00 -4.048452526E-02 9.403746724E-01
 1.009999990E+00 -3.912478313E-02 9.397054315E-01
 1.009999990E+00 -3.781116754E-02 9.390406013E-01
 1.009999990E+00 -3.654212132E-02 9.383804798E-01
 1.009999990E+00 -3.531615436E-02 9.377248883E-01
 1.009999990E+00 -3.413181379E-02 9.370743632E-01
 1.009999990E+00 -3.298769146E-02 9.364284873E-01
 1.009999990E+00 -3.188243136E-02 9.357880950E-01
 1.009999990E+00 -3.081471846E-02 9.351524711E-01
 1.009999990E+00 -2.978328243E-02 9.345224500E-01
 1.009999990E+00 -2.878691442E-02 9.338976741E-01
 1.009999990E+00 -2.782441489E-02 9.332786798E-01
 1.009999990E+00 -2.689462155E-02 9.326652288E-01
 1.009999990E+00 -2.599640377E-02 9.320567250E-01
 1.009999990E+00 -2.512866817E-02 9.314526916E-01
 1.009999990E+00 -2.429035865E-02 9.308570623E-01
 1.009999990E+00 -2.348043397E-02 9.302859902E-01
 1.009999990E+00 -2.269789018E-02 9.296978712E-01
 1.009999990E+00 -2.194175869E-02 9.287488461E-01
 1.009999990E+00 -2.121111006E-02 9.265844226E-01
 1.009999990E+00 -2.050504647E-02 9.222421050E-01
 1.009999990E+00 -1.982271671E-02 9.155043364E-01
 1.009999990E+00 -1.916330121E-02 9.069833755E-01
 1.009999990E+00 -1.852601953E-02 8.975810409E-01
 1.009999990E+00 -1.791011542E-02 8.879052997E-01
 1.009999990E+00 -1.731486619E-02 8.782327771E-01
 1.009999990E+00 -1.673957519E-02 8.686540723E-01
 1.009999990E+00 -1.618356816E-02 8.591735959E-01
 1.009999990E+00 -1.564619876E-02 8.497529030E-01
 1.009999990E+00 -1.512684394E-02 8.403218389E-01
 1.009999990E+00 -1.462490298E-02 8.307878375E-01
 1.009999990E+00 -1.413979195E-02 8.210908771E-01
 1.009999990E+00 -1.367094647E-02 8.112866879E-01
 1.009999990E+00 -1.321781985E-02 8.015370965E-01
 1.009999990E+00 -1.277988404E-02 7.920010090E-01
 1.009999990E+00 -1.235662960E-02 7.827736735E-01
 1.009999990E+00 -1.194756292E-02 7.738863230E-01
 1.009999990E+00 -1.155220717E-02 7.653307915E-01
 1.009999990E+00 -1.117010135E-02 7.570859194E-01
 1.009999990E+00 -1.080079935E-02 7.491381764E-01
 1.009999990E+00 -1.044387184E-02 7.414914966E-01
 1.009999990E+00 -1.009890065E-02 7.341538072E-01
 1.009999990E+00 -9.765485302E-03 7.271031141E-01
 1.009999990E+00 -9.443235584E-03 7.202864289E-01
 1.009999990E+00 -9.131776169E-03 7.136604190E-01
 1.009999990E+00 -8.830745704E-03 7.072061300E-01
 1.009999990E+00 -8.539792150E-03 7.009112239E-01
 1.009999990E+00 -8.258575574E-03 6.947661638E-01
 1.009999990E+00 -7.986768149E-03 6.887622476E-01
 1.009999990E+00 -7.724053692E-03 6.828919649E-01
 1.009999990E+00 -7.470124401E-03 6.771467924E-01
 1.009999990E+00 -7.224685047E-03 6.715198159E-01
 1.009999990E+00 -6.987449713E-03 6.660044789E-01
 1.009999990E+00 -6.758141331E-03 6.605940461E-01
 1.009999990E+00 -6.536493078E-03 6.552829742E-01
 1.009999990E+00 -6.322246511E-03 6.500660777E-01
 1.009999990E+00 -6.115152966E-03 6.449386477E-01
 1.009999990E+00 -5.914971232E-03 6.398962140E-01
 1.009999990E+00 -5.721468013E-03 6.349339485E-01
 1.009999990E+00 -5.534418393E-03 6.300476193E-01
 1.009999990E+00 -5.353605375E-03 6.252334118E-01
 1.009999990E+00 -5.178818014E-03 6.204875708E-01
 1.009999990E+00 -5.009854678E-03 6.158065200E-01
 1.009999990E+00 -4.846517928E-03 6.111864448E-01
 1.009999990E+00 -4.688618705E-03 6.066247225E-01
 1.009999990E+00 -4.535974469E-03 6.021179557E-01
 1.009999990E+00 -4.388407338E-03 5.976635218E-01
 1.009999990E+00 -4.245747346E-03 5.932592154E-01
 1.009999990E+00 -4.107828252E-03 5.889018178E-01
 1.009999990E+00 -3.974491265E-03 5.845885873E-01
 1.009999990E+00 -3.845581785E-03 5.803173184E-01
 1.009999990E+00 -3.720950801E-03 5.760854483E-01
 1.009999990E+00 -3.600454656E-03 5.718906522E-01
 1.009999990E+00 -3.483953886E-03 5.677307248E-01
 1.009999990E+00 -3.371314146E-03 5.636034608E-01
 1.009999990E+00 -3.262405749E-03 5.595068336E-01
 1.009999990E+00 -3.157103201E-03 5.554386973E-01
 1.009999990E+00 -3.055284964E-03 5.513968468E-01
 1.009999990E+00 -2.956833923E-03 5.473793745E-01
 1.009999990E+00 -2.861637156E-03 5.433845520E-01
 1.009999990E+00 -2.769585000E-03 5.394098163E-01
 1.009999990E+00 -2.680571983E-03 5.354536772E-01
 1.009999990E+00 -2.594495658E-03 5.315143466E-01
 1.009999990E+00 -2.511257771E-03 5.275902152E-01
 1.009999990E+00 -2.430762630E-03 5.236792564E-01
 1.009999990E+00 -2.352918033E-03 5.197796822E-01
 1.009999990E+00 -2.277635271E-03 5.158898830E-01
 1.009999990E+00 -2.204828197E-03 5.120081902E-01
 1.009999990E+00 -2.134413458E-03 5.081333518E-01
 1.009999990E+00 -2.066311194E-03 5.042638779E-01
 1.009999990E+00 -2.000443172E-03 5.003988147E-01
 1.009999990E+00 -1.936735003E-03 4.965374470E-01
 1.009999990E+00 -1.875113929E-03 4.926790893E-01
 1.009999990E+00 -1.815509866E-03 4.888235033E-01
 1.009999990E+00 -1.757855178E-03 4.849708974E-01
 1.009999990E+00 -1.702084555E-03 4.811218083E-01
 1.009999990E+00 -1.648134785E-03 4.772770107E-01
 1.009999990E+00 -1.595944748E-03 4.734380543E-01
 1.009999990E+00 -1.545455540E-03 4.696065187E-01
 1.009999990E+00 -1.496609999E-03 4.657846391E-01
 1.009999990E+00 -1.449353062E-03 4.619750679E-01
 1.009999990E+00 -1.403631642E-03 4.581808150E-01
 1.009999990E+00 -1.359393937E-03 4.544050097E-01
 1.009999990E+00 -1.316590584E-03 4.506514072E-01
 1.009999990E+00 -1.275173272E-03 4.469239116E-01
 1.009999990E+00 -1.235095784E-03 4.432261288E-01
 1.009999990E+00 -1.196312951E-03 4.395624697E-01
 1.009999990E+00 -1.158781582E-03 4.359371066E-01
 1.009999990E+00 -1.122459769E-03 4.323544204E-01
 1.009999990E+00 -1.087306882E-03 4.288183153E-01
 1.009999990E+00 -1.053283806E-03 4.253329933E-01
 1.009999990E+00 -1.020352705E-03 4.219022095E-01
 1.009999990E+00 -9.884770261E-04 4.185296595E-01
 1.009999990E+00 -9.576214361E-04 4.152188599E-01
 1.009999990E+00 -9.277517092E-04 4.119727910E-01
 1.009999990E+00 -8.988348418E-04 4.087946415E-01
 1.009999990E+00 -8.708388777E-04 4.056863487E-01
 1.009999990E+00 -8.437330252E-04 4.026508033E-01
 1.009999990E+00 -8.174874238E-04 3.996897936E-01
 1.009999990E+00 -7.920732605E-04 3.968048394E-01
 1.009999990E+00 -7.674626540E-04 3.939969540E-01
 1.009999990E+00 -7.436286542E-04 3.912678957E-01
 1.009999990E+00 -7.205452421E-04 3.886177540E-01
 1.009999990E+00 -6.981872721E-04 3.860473931E-01
 1.009999990E+00 -6.765303551E-04 3.835566640E-01
 1.009999990E+00 -6.555509754E-04 3.811451197E-01
 1.009999990E+00 -6.352264318E-04 3.788130581E-01
 1.009999990E+00 -6.155346637E-04 3.765601218E-01
 1.009999990E+00 -5.964544252E-04 3.743847609E-01
 1.009999990E+00 -5.779651692E-04 3.722867072E-01
 1.009999990E+00 -5.600470467E-04 3.702647090E-01
 1.009999990E+00 -5.426807911E-04 3.683173060E-01
 1.009999990E+00 -5.258478341E-04 3.664432168E-01
 1.009999990E+00 -5.095301894E-04 3.646413982E-01
 1.009999990E+00 -4.937105114E-04 3.629104197E-01
 1.009999990E+00 -4.783718905E-04 3.612475395E-01
 1.009999990E+00 -4.634981742E-04 3.596518636E-01
 1.009999990E+00 -4.490735591E-04 3.581217825E-01
 1.009999990E+00 -4.350828531E-04 3.566548824E-01
 1.009999990E+00 -4.215113586E-04 3.552491069E-01
 1.009999990E+00 -4.083447857E-04 3.539032042E-01
 1.009999990E+00 -3.955693974E-04 3.526149094E-01
 1.009999990E+00 -3.831718350E-04 3.513824642E-01
 1.009999990E+00 -3.711392346E-04 3.502036929E-01
 1.009999990E+00 -3.594591108E-04 3.490768373E-01
 1.009999990E+00 -3.481193271E-04 3.479999900E-01
 1.009999990E+00 -3.371082421E-04 3.469712734E-01
 1.009999990E+00 -3.264145344E-04 3.459888101E-01
 1.009999990E+00 -3.160272317E-04 3.450501561E-01
 1.009999990E+00 -3.059357114E-04 3.441542387E-01
 1.009999990E+00 -2.961296996E-04 3.432989120E-01
 1.009999990E+00 -2.865992719E-04 3.424831331E-01
 1.009999990E+00 -2.773347951E-04 3.417038918E-01
 1.009999990E+00 -2.683268976E-04 3.409611285E-01
 1.009999990E+00 -2.595665574E-04 3.402519822E-01
 1.009999990E+00 -2.510449849E-04 3.395755887E-01
 1.009999990E+00 -2.427537402E-04 3.389306068E-01
 1.009999990E+00 -2.346845286E-04 3.383149803E-01
 1.009999990E+00 -2.268294047E-04 3.377275467E-01
 1.009999990E+00 -2.191806125E-04 3.371672332E-01
 1.009999990E+00 -2.117306431E-04 3.366329074E-01
 1.009999990E+00 -2.044722060E-04 3.361222744E-01
 1.009999990E+00 -1.973982435E-04 3.356350362E-01
 1.009999990E+00 -1.905019017E-04 3.351701498E-01
 1.009999990E+00 -1.837765012E-04 3.347265720E-01
 1.009999990E+00 -1.772155811E-04 3.343026936E-01
 1.009999990E+00 -1.708128548E-04 3.338975608E-01
 1.009999990E+00 -1.645622397E-04 3.335106373E-01
 1.009999990E+00 -1.584577694E-04 3.331411481E-01
 1.009999990E+00 -1.524936815E-04 3.327881694E-01
 1.009999990E+00 -1.466643589E-04 3.324503303E-01
 1.009999990E+00 -1.409643592E-04 3.321274817E-01
 1.009999990E+00 -1.353883417E-04 3.318182230E-01
 1.009999990E+00 -1.299311552E-04 3.315228522E-01
 1.009999990E+00 -1.245877211E-04 3.312398493E-01
 1.009999990E+00 -1.193531352E-04 3.309684694E-01
 1.009999990E+00 -1.142226029E-04 3.307084441E-01
 1.009999990E+00 -1.091914455E-04 3.304600120E-01
 1.009999990E+00 -1.042550866E-04 3.302209377E-01
 1.009999990E+00 -9.940905875E-05 3.299927711E-01
 1.009999990E+00 -9.464901086E-05 3.297730088E-01
 1.009999990E+00 -8.997067198E-05 3.295620680E-01
 1.009999990E+00 -8.536985843E-05 3.293596208E-01
 1.009999990E+00 -8.084248839E-05 3.291652799E-01
 1.009999990E+00 -7.638454554E-05 3.289780021E-01
 1.009999990E+00 -7.199210813E-05 3.287985921E-01
 1.009999990E+00 -6.766131264E-05 3.286261559E-01
 1.009999990E+00 -6.338836829E-05 3.284592032E-01
 1.009999990E+00 -5.916956070E-05 3.282996118E-01
 1.009999990E+00 -5.500121188E-05 3.281449676E-01
 1.009999990E+00 -5.087972022E-05 3.279971182E-01
 1.009999990E+00 -4.680152415E-05 3.278536201E-01
 1.009999990E+00 -4.276312029E-05 3.277158439E-01
 1.009999990E+00 -3.876104165E-05 3.275830746E-01
 1.009999990E+00 -3.479186489E-05 3.274545074E-01
 1.009999990E+00 -3.085220305E-05 3.273304105E-01
 1.009999990E+00 -2.693869828E-05 3.272112906E-01
 1.009999990E+00 -2.304802729E-05 3.270957470E-01
 1.009999990E+00 -1.917689042E-05 3.269842267E-01
 1.009999990E+00 -1.532200804E-05 3.268765211E-01
 1.009999990E+00 -1.148011779E-05 3.267725408E-01
 1.009999990E+00 -7.647975508E-06 3.266721666E-01
 1.009999990E+00 -3.822345661E-06 3.265752196E-01
 1.009999990E+00 0.000000000E+00 3.264842033E-01
 1.009999990E+00 3.822347935E-06 3.263914287E-01
 1.009999990E+00 7.647980055E-06 3.263043761E-01
 1.009999990E+00 1.148012416E-05 3.262204528E-01
 1.009999990E+00 1.532201532E-05 3.261395395E-01
 1.009999990E+00 1.917690133E-05 3.260616660E-01
 1.009999990E+00 2.304804002E-05 3.259866834E-01
 1.009999990E+00 2.693871284E-05 3.259146810E-01
 1.009999990E+00 3.085221761E-05 3.258449435E-01
 1.009999990E+00 3.479188308E-05 3.257787526E-01
 1.009999990E+00 3.876106348E-05 3.257154524E-01
 1.009999990E+00 4.276314212E-05 3.256544471E-01
 1.009999990E+00 4.680154962E-05 3.255964220E-01
 1.009999990E+00 5.087974569E-05 3.255419433E-01
 1.009999990E+00 5.500124098E-05 3.254893422E-01
 1.009999990E+00 5.916958980E-05 3.254409432E-01
 1.009999990E+00 6.338840467E-05 3.253946304E-01
 1.009999990E+00 6.766134902E-05 3.253526092E-01
 1.009999990E+00 7.199214451E-05 3.253127337E-01
 1.009999990E+00 7.638458919E-05 3.252763450E-01
 1.009999990E+00 8.084253204E-05 3.252440989E-01
 1.009999990E+00 8.536990208E-05 3.252148628E-01
 1.009999990E+00 8.997071563E-05 3.251895010E-01
 1.009999990E+00 9.464906179E-05 3.251680732E-01
 1.009999990E+00 9.940911696E-05 3.251506686E-01
 1.009999990E+00 1.042551376E-04 3.251365721E-01
 1.009999990E+00 1.091915037E-04 3.251280189E-01
 1.009999990E+00 1.142226683E-04 3.251231313E-01
 1.009999990E+00 1.193532007E-04 3.251238465E-01
 1.009999990E+00 1.245877793E-04 3.251296282E-01
 1.009999990E+00 1.299312280E-04 3.251402974E-01
 1.009999990E+00 1.353884290E-04 3.251563609E-01
 1.009999990E+00 1.409644319E-04 3.251788616E-01
 1.009999990E+00 1.466644462E-04 3.252072036E-01
 1.009999990E+00 1.524937543E-04 3.252423406E-01
 1.009999990E+00 1.584578567E-04 3.252839744E-01
 1.009999990E+00 1.645623270E-04 3.253330886E-01
 1.009999990E+00 1.708129566E-04 3.253901601E-01
 1.009999990E+00 1.772156829E-04 3.254554868E-01
 1.009999990E+00 1.837766031E-04 3.255290687E-01
 1.009999990E+00 1.905020035E-04 3.256112635E-01
 1.009999990E+00 1.973983599E-04 3.257032335E-01
 1.009999990E+00 2.044723224E-04 3.258055449E-01
 1.009999990E+00 2.117307595E-04 3.259185553E-01
 1.009999990E+00 2.191807289E-04 3.260419071E-01
 1.009999990E+00 2.268295357E-04 3.261773288E-01
 1.009999990E+00 2.346846741E-04 3.263253868E-01
 1.009999990E+00 2.427538711E-04 3.264862597E-01
 1.009999990E+00 2.510451304E-04 3.266605735E-01
 1.009999990E+00 2.595667029E-04 3.268496394E-01
 1.009999990E+00 2.683270432E-04 3.270540535E-01
 1.009999990E+00 2.773349406E-04 3.272738159E-01
 1.009999990E+00 2.865994466E-04 3.275112212E-01
 1.009999990E+00 2.961298742E-04 3.277651966E-01
 1.009999990E+00 3.059358860E-04 3.280381858E-01
 1.009999990E+00 3.160274064E-04 3.283302784E-01
 1.009999990E+00 3.264147381E-04 3.286427855E-01
 1.009999990E+00 3.371084458E-04 3.289757967E-01
 1.009999990E+00 3.481195308E-04 3.293310702E-01
 1.009999990E+00 3.594593145E-04 3.297094405E-01
 1.009999990E+00 3.711394675E-04 3.301120400E-01
 1.009999990E+00 3.831720969E-04 3.305398822E-01
 1.009999990E+00 3.955696302E-04 3.309937119E-01
 1.009999990E+00 4.083450476E-04 3.314750195E-01
 1.009999990E+00 4.215116205E-04 3.319846094E-01
 1.009999990E+00 4.350831150E-04 3.325241804E-01
 1.009999990E+00 4.490738502E-04 3.330938220E-01
 1.009999990E+00 4.634984653E-04 3.336949646E-01
 1.009999990E+00 4.783722106E-04 3.343296945E-01
 1.009999990E+00 4.937108024E-04 3.349987864E-01
 1.009999990E+00 5.095305387E-04 3.357022703E-01
 1.009999990E+00 5.258481833E-04 3.364429176E-01
 1.009999990E+00 5.426811404E-04 3.372217715E-01
 1.009999990E+00 5.600473960E-04 3.380394578E-01
 1.009999990E+00 5.779655767E-04 3.388969600E-01
 1.009999990E+00 5.964548327E-04 3.397956192E-01
 1.009999990E+00 6.155350711E-04 3.407373428E-01
 1.009999990E+00 6.352268392E-04 3.417224884E-01
 1.009999990E+00 6.555513828E-04 3.427518010E-01
 1.009999990E+00 6.765308208E-04 3.438283801E-01
 1.009999990E+00 6.981877377E-04 3.449510932E-01
 1.009999990E+00 7.205457659E-04 3.461219668E-01
 1.009999990E+00 7.436291780E-04 3.473426402E-01
 1.009999990E+00 7.674631779E-04 3.486128151E-01
 1.009999990E+00 7.920737844E-04 3.499349654E-01
 1.009999990E+00 8.174880059E-04 3.513084352E-01
 1.009999990E+00 8.437336073E-04 3.527349234E-01
 1.009999990E+00 8.708394598E-04 3.542159200E-01
 1.009999990E+00 8.988354239E-04 3.557507098E-01
 1.009999990E+00 9.277523495E-04 3.573407829E-01
 1.009999990E+00 9.576220764E-04 3.589861393E-01
 1.009999990E+00 9.884777246E-04 3.606885970E-01
 1.009999990E+00 1.020353404E-03 3.624470830E-01
 1.009999990E+00 1.053284504E-03 3.642619848E-01
 1.009999990E+00 1.087307581E-03 3.661347032E-01
 1.009999990E+00 1.122460468E-03 3.680654168E-01
 1.009999990E+00 1.158782397E-03 3.700541854E-01
 1.009999990E+00 1.196313766E-03 3.720999658E-01
 1.009999990E+00 1.235096599E-03 3.742040396E-01
 1.009999990E+00 1.275174203E-03 3.763662279E-01
 1.009999990E+00 1.316591515E-03 3.785850108E-01
 1.009999990E+00 1.359394984E-03 3.808616698E-01
 1.009999990E+00 1.403632574E-03 3.831953704E-01
 1.009999990E+00 1.449354109E-03 3.855857253E-01
 1.009999990E+00 1.496611047E-03 3.880324066E-01
 1.009999990E+00 1.545456587E-03 3.905351162E-01
 1.009999990E+00 1.595945912E-03 3.930933774E-01
 1.009999990E+00 1.648136065E-03 3.957062960E-01
 1.009999990E+00 1.702085836E-03 3.983742297E-01
 1.009999990E+00 1.757856458E-03 4.010957778E-01
 1.009999990E+00 1.815511147E-03 4.038714170E-01
 1.009999990E+00 1.875115326E-03 4.067003429E-01
 1.009999990E+00 1.936736517E-03 4.095820189E-01
 1.009999990E+00 2.000444802E-03 4.125164151E-01
 1.009999990E+00 2.066312591E-03 4.155037999E-01
 1.009999990E+00 2.134415088E-03 4.185435474E-01
 1.009999990E+00 2.204829827E-03 4.216358066E-01
 1.009999990E+00 2.277636901E-03 4.247811735E-01
 1.009999990E+00 2.352919895E-03 4.279795885E-01
 1.009999990E+00 2.430764493E-03 4.312315881E-01
 1.009999990E+00 2.511259634E-03 4.345380962E-01
 1.009999990E+00 2.594497753E-03 4.378994405E-01
 1.009999990E+00 2.680574078E-03 4.413169920E-01
 1.009999990E+00 2.769587096E-03 4.447914958E-01
 1.009999990E+00 2.861639485E-03 4.483242631E-01
 1.009999990E+00 2.956836252E-03 4.519159198E-01
 1.009999990E+00 3.055287292E-03 4.555689394E-01
 1.009999990E+00 3.157105530E-03 4.592849910E-01
 1.009999990E+00 3.262408311E-03 4.630647600E-01
 1.009999990E+00 3.371316940E-03 4.669116139E-01
 1.009999990E+00 3.483956680E-03 4.708276689E-01
 1.009999990E+00 3.600457450E-03 4.748144746E-01
 1.009999990E+00 3.720953828E-03 4.788752496E-01
 1.009999990E+00 3.845584812E-03 4.830122888E-01
 1.009999990E+00 3.974494524E-03 4.872285128E-01
 1.009999990E+00 4.107831512E-03 4.915266037E-01
 1.009999990E+00 4.245750606E-03 4.959097207E-01
 1.009999990E+00 4.388411064E-03 5.003815293E-01
 1.009999990E+00 4.535978194E-03 5.049452782E-01
 1.009999990E+00 4.688622896E-03 5.096046329E-01
 1.009999990E+00 4.846522119E-03 5.143623948E-01
 1.009999990E+00 5.009858869E-03 5.192230344E-01
 1.009999990E+00 5.178822670E-03 5.241903663E-01
 1.009999990E+00 5.353610031E-03 5.292693377E-01
 1.009999990E+00 5.534423050E-03 5.344647765E-01
 1.009999990E+00 5.721473135E-03 5.397813916E-01
 1.009999990E+00 5.914976355E-03 5.452246666E-01
 1.009999990E+00 6.115158554E-03 5.508002639E-01
 1.009999990E+00 6.322252564E-03 5.565143228E-01
 1.009999990E+00 6.536499131E-03 5.623731613E-01
 1.009999990E+00 6.758147385E-03 5.683822036E-01
 1.009999990E+00 6.987456232E-03 5.745489597E-01
 1.009999990E+00 7.224692032E-03 5.808804035E-01
 1.009999990E+00 7.470131386E-03 5.873851776E-01
 1.009999990E+00 7.724061143E-03 5.940712690E-01
 1.009999990E+00 7.986776531E-03 6.009480357E-01
 1.009999990E+00 8.258583955E-03 6.080257297E-01
 1.009999990E+00 8.539800532E-03 6.153168678E-01
 1.009999990E+00 8.830755018E-03 6.228506565E-01
 1.009999990E+00 9.131785482E-03 6.306732297E-01
 1.009999990E+00 9.443244897E-03 6.388176680E-01
 1.009999990E+00 9.765495546E-03 6.472793818E-01
 1.009999990E+00 1.009891182E-02 6.560372114E-01
 1.009999990E+00 1.044388302E-02 6.650802493E-01
 1.009999990E+00 1.080081146E-02 6.744170189E-01
 1.009999990E+00 1.117011346E-02 6.840718389E-01
 1.009999990E+00 1.155222021E-02 6.940765977E-01
 1.009999990E+00 1.194757689E-02 7.044656277E-01
 1.009999990E+00 1.235664450E-02 7.152712941E-01
 1.009999990E+00 1.277989987E-02 7.265203595E-01
 1.009999990E+00 1.321783569E-02 7.382187843E-01
 1.009999990E+00 1.367096324E-02 7.503306270E-01
 1.009999990E+00 1.413981058E-02 7.627535462E-01
 1.009999990E+00 1.462492254E-02 7.753050923E-01
 1.009999990E+00 1.512686349E-02 7.877792716E-01
 1.009999990E+00 1.564621925E-02 8.000556231E-01
 1.009999990E+00 1.618359052E-02 8.121265769E-01
 1.009999990E+00 1.673959941E-02 8.240837455E-01
 1.009999990E+00 1.731489226E-02 8.360351324E-01
 1.009999990E+00 1.791014336E-02 8.480384350E-01
 1.009999990E+00 1.852604933E-02 8.600979447E-01
 1.009999990E+00 1.916333288E-02 8.721736073E-01
 1.009999990E+00 1.982275024E-02 8.841383457E-01
 1.009999990E+00 2.050508372E-02 8.957095742E-01
 1.009999990E+00 2.121114731E-02 9.064465165E-01
 1.009999990E+00 2.194179967E-02 9.156780839E-01
 1.009999990E+00 2.269793302E-02 9.227797389E-01
 1.009999990E+00 2.348048054E-02 9.274936914E-01
 1.009999990E+00 2.429040708E-02 9.301426411E-01
 1.009999990E+00 2.512871847E-02 9.315418601E-01
 1.009999990E+00 2.599645779E-02 9.324419498E-01
 1.009999990E+00 2.689467557E-02 9.332643747E-01
 1.009999990E+00 2.782447077E-02 9.341173172E-01
 1.009999990E+00 2.878697403E-02 9.349919558E-01
 1.009999990E+00 2.978334390E-02 9.358741641E-01
 1.009999990E+00 3.081477992E-02 9.367626905E-01
 1.009999990E+00 3.188249841E-02 9.376605153E-01
 1.009999990E+00 3.298775852E-02 9.385680556E-01
 1.009999990E+00 3.413188085E-02 9.394864440E-01
 1.009999990E+00 3.531622514E-02 9.404146075E-01
 1.009999990E+00 3.654219210E-02 9.413531423E-01
 1.009999990E+00 3.781123832E-02 9.423014522E-01
 1.009999990E+00 3.912485763E-02 9.432599545E-01
 1.009999990E+00 4.048459977E-02 9.442278743E-01
 1.009999990E+00 4.189208150E-02 9.452056885E-01
 1.009999990E+00 4.334897920E-02 9.461930394E-01
 1.009999990E+00 4.485701397E-02 9.471898675E-01
 1.009999990E+00 4.641798139E-02 9.481960535E-01
 1.009999990E+00 4.803373292E-02 9.492114186E-01
 1.009999990E+00 4.970618710E-02 9.502360225E-01
 1.009999990E+00 5.143732578E-02 9.512694478E-01
 1.009999990E+00 5.322920904E-02 9.523118734E-01
 1.009999990E+00 5.508396775E-02 9.533627629E-01
 1.009999990E+00 5.700381100E-02 9.544224143E-01
 1.009999990E+00 5.899102241E-02 9.554902911E-01
 1.009999990E+00 6.104796752E-02 9.565663934E-01
 1.009999990E+00 6.317709386E-02 9.576505423E-01