#Phase-averaged CPs at a point just inside slot and at 19 x/c wall locations.
#Cp0.6508 gives Cp inside the slot at location x/c=0.6508, y/c=0.1119
#The remaining 19 Cps are on the hump surface and downstream wall.
variables="Phase(deg)","Cp0.6508","Cp0.659","Cp0.689","Cp0.712","Cp0.734","Cp0.755","Cp0.778","Cp0.801","Cp0.823","Cp0.844","Cp0.866","Cp0.889","Cp0.911","Cp0.962","Cp1.010","Cp1.046","Cp1.094","Cp1.160","Cp1.260","Cp1.393"
ZONE
4.2	-1.44511	-0.60386	-0.28080	-0.37375	-0.48684	-0.66609	-0.75187	-0.76737	-0.67882	-0.51872	-0.33889	-0.19286	-0.13914	-0.11912	-0.15700	-0.18405	-0.14222	-0.02332	-0.01137	-0.08469
8.1	-1.43702	-0.61490	-0.28513	-0.35791	-0.47035	-0.65308	-0.74428	-0.76918	-0.69133	-0.53524	-0.35220	-0.19772	-0.13863	-0.11360	-0.14962	-0.18004	-0.14474	-0.03006	-0.01030	-0.08219
12.0	-1.42713	-0.62555	-0.29144	-0.34284	-0.45305	-0.63990	-0.73591	-0.76942	-0.70261	-0.55097	-0.36574	-0.20323	-0.13915	-0.10783	-0.14259	-0.17558	-0.14652	-0.03697	-0.00933	-0.07978
15.9	-1.41544	-0.63587	-0.29932	-0.32892	-0.43533	-0.62647	-0.72679	-0.76814	-0.71256	-0.56612	-0.37962	-0.20951	-0.14104	-0.10177	-0.13594	-0.17088	-0.14759	-0.04401	-0.00878	-0.07772
19.8	-1.40100	-0.64631	-0.30829	-0.31649	-0.41772	-0.61277	-0.71686	-0.76548	-0.72110	-0.58093	-0.39417	-0.21652	-0.14424	-0.09667	-0.12960	-0.16616	-0.14818	-0.05117	-0.00857	-0.07602
23.7	-1.38261	-0.65693	-0.31792	-0.30583	-0.40082	-0.59880	-0.70613	-0.76158	-0.72844	-0.59571	-0.40973	-0.22442	-0.14842	-0.09261	-0.12342	-0.16133	-0.14842	-0.05821	-0.00881	-0.07471
27.6	-1.35996	-0.66754	-0.32780	-0.29717	-0.38512	-0.58451	-0.69464	-0.75658	-0.73462	-0.61066	-0.42654	-0.23349	-0.15337	-0.08908	-0.11723	-0.15649	-0.14832	-0.06499	-0.00973	-0.07410
31.5	-1.33343	-0.67831	-0.33759	-0.29058	-0.37091	-0.56991	-0.68236	-0.75053	-0.73962	-0.62557	-0.44452	-0.24371	-0.15905	-0.08582	-0.11094	-0.15158	-0.14818	-0.07166	-0.01111	-0.07385
35.4	-1.30278	-0.68876	-0.34699	-0.28609	-0.35837	-0.55502	-0.66925	-0.74335	-0.74336	-0.64011	-0.46315	-0.25487	-0.16509	-0.08207	-0.10457	-0.14638	-0.14819	-0.07800	-0.01300	-0.07408
39.3	-1.26734	-0.69838	-0.35571	-0.28361	-0.34753	-0.53982	-0.65534	-0.73495	-0.74569	-0.65383	-0.48187	-0.26679	-0.17155	-0.07795	-0.09809	-0.14102	-0.14822	-0.08396	-0.01525	-0.07458
43.2	-1.22840	-0.70738	-0.36352	-0.28298	-0.33828	-0.52432	-0.64057	-0.72518	-0.74641	-0.66635	-0.50000	-0.27926	-0.17867	-0.07389	-0.09177	-0.13530	-0.14801	-0.08957	-0.01783	-0.07492
47.1	-1.18714	-0.71601	-0.37028	-0.28399	-0.33048	-0.50852	-0.62491	-0.71390	-0.74518	-0.67734	-0.51680	-0.29196	-0.18621	-0.06999	-0.08584	-0.12907	-0.14718	-0.09463	-0.02064	-0.07525
51.0	-1.14354	-0.72401	-0.37597	-0.28642	-0.32397	-0.49249	-0.60840	-0.70104	-0.74189	-0.68645	-0.53229	-0.30486	-0.19416	-0.06672	-0.07997	-0.12254	-0.14546	-0.09916	-0.02355	-0.07499
54.9	-1.09739	-0.73094	-0.38062	-0.29002	-0.31854	-0.47632	-0.59110	-0.68663	-0.73675	-0.69340	-0.54688	-0.31823	-0.20279	-0.06410	-0.07410	-0.11556	-0.14290	-0.10309	-0.02666	-0.07400
58.8	-1.04828	-0.73716	-0.38429	-0.29455	-0.31402	-0.46008	-0.57311	-0.67077	-0.72987	-0.69828	-0.56066	-0.33226	-0.21221	-0.06177	-0.06844	-0.10832	-0.13974	-0.10610	-0.02951	-0.07228
62.7	-0.99708	-0.74299	-0.38714	-0.29977	-0.31031	-0.44392	-0.55458	-0.65369	-0.72139	-0.70137	-0.57355	-0.34689	-0.22253	-0.05966	-0.06267	-0.10118	-0.13600	-0.10804	-0.03210	-0.06954
66.6	-0.94461	-0.74799	-0.38934	-0.30550	-0.30735	-0.42796	-0.53567	-0.63571	-0.71146	-0.70282	-0.58540	-0.36206	-0.23369	-0.05794	-0.05683	-0.09386	-0.13147	-0.10910	-0.03461	-0.06625
70.5	-0.89174	-0.75153	-0.39107	-0.31161	-0.30511	-0.41235	-0.51654	-0.61716	-0.70019	-0.70271	-0.59621	-0.37756	-0.24534	-0.05717	-0.05121	-0.08637	-0.12609	-0.10940	-0.03659	-0.06265
74.4	-0.83994	-0.75276	-0.39249	-0.31795	-0.30357	-0.39723	-0.49744	-0.59826	-0.68769	-0.70094	-0.60612	-0.39293	-0.25732	-0.05745	-0.04545	-0.07916	-0.11992	-0.10906	-0.03831	-0.05875
78.3	-0.79076	-0.75128	-0.39376	-0.32442	-0.30273	-0.38273	-0.47858	-0.57918	-0.67408	-0.69740	-0.61477	-0.40802	-0.26989	-0.05819	-0.03941	-0.07204	-0.11326	-0.10840	-0.04002	-0.05495
82.2	-0.74654	-0.74813	-0.39496	-0.33091	-0.30254	-0.36894	-0.46012	-0.56012	-0.65956	-0.69209	-0.62179	-0.42299	-0.28307	-0.05906	-0.03350	-0.06488	-0.10649	-0.10719	-0.04156	-0.05133
86.0	-0.70850	-0.74640	-0.39621	-0.33735	-0.30296	-0.35595	-0.44222	-0.54124	-0.64431	-0.68495	-0.62728	-0.43799	-0.29676	-0.06006	-0.02824	-0.05805	-0.09951	-0.10550	-0.04336	-0.04788
89.9	-0.67597	-0.75102	-0.39760	-0.34372	-0.30399	-0.34389	-0.42503	-0.52275	-0.62840	-0.67620	-0.63134	-0.45276	-0.31114	-0.06162	-0.02360	-0.05136	-0.09253	-0.10382	-0.04568	-0.04481
93.8	-0.64689	-0.76588	-0.39927	-0.35005	-0.30569	-0.33285	-0.40867	-0.50486	-0.61199	-0.66635	-0.63411	-0.46687	-0.32612	-0.06391	-0.01910	-0.04457	-0.08587	-0.10197	-0.04846	-0.04237
97.7	-0.61854	-0.79033	-0.40138	-0.35640	-0.30813	-0.32291	-0.39329	-0.48768	-0.59526	-0.65564	-0.63555	-0.48026	-0.34134	-0.06706	-0.01452	-0.03787	-0.07932	-0.09986	-0.05182	-0.04072
101.6	-0.58952	-0.81869	-0.40409	-0.36285	-0.31142	-0.31415	-0.37902	-0.47136	-0.57836	-0.64409	-0.63557	-0.49304	-0.35648	-0.07151	-0.01024	-0.03134	-0.07309	-0.09782	-0.05569	-0.03962
105.5	-0.55997	-0.84405	-0.40762	-0.36950	-0.31571	-0.30667	-0.36598	-0.45596	-0.56153	-0.63195	-0.63423	-0.50512	-0.37158	-0.07726	-0.00665	-0.02515	-0.06746	-0.09581	-0.06012	-0.03877
109.4	-0.53125	-0.86193	-0.41209	-0.37647	-0.32112	-0.30054	-0.35430	-0.44165	-0.54505	-0.61947	-0.63153	-0.51630	-0.38690	-0.08396	-0.00360	-0.01921	-0.06234	-0.09361	-0.06497	-0.03828
113.3	-0.50482	-0.87152	-0.41761	-0.38383	-0.32764	-0.29579	-0.34408	-0.42860	-0.52917	-0.60683	-0.62751	-0.52655	-0.40243	-0.09143	-0.00085	-0.01366	-0.05763	-0.09118	-0.06981	-0.03796
117.2	-0.48125	-0.87424	-0.42424	-0.39157	-0.33520	-0.29242	-0.33539	-0.41682	-0.51403	-0.59410	-0.62238	-0.53580	-0.41766	-0.09971	0.00149	-0.00882	-0.05313	-0.08879	-0.07433	-0.03732
121.1	-0.46028	-0.87159	-0.43208	-0.39968	-0.34369	-0.29045	-0.32823	-0.40620	-0.49957	-0.58117	-0.61627	-0.54403	-0.43221	-0.10892	0.00302	-0.00431	-0.04855	-0.08641	-0.07809	-0.03650
125.0	-0.44091	-0.86502	-0.44125	-0.40808	-0.35289	-0.28982	-0.32257	-0.39658	-0.48566	-0.56815	-0.60910	-0.55124	-0.44595	-0.11887	0.00364	-0.00015	-0.04399	-0.08355	-0.08113	-0.03539
128.9	-0.42229	-0.85554	-0.45199	-0.41667	-0.36256	-0.29047	-0.31836	-0.38781	-0.47227	-0.55496	-0.60080	-0.55701	-0.45831	-0.12948	0.00354	0.00328	-0.03951	-0.08049	-0.08350	-0.03404
132.8	-0.40389	-0.84356	-0.46459	-0.42539	-0.37243	-0.29233	-0.31548	-0.37981	-0.45947	-0.54129	-0.59141	-0.56117	-0.46904	-0.14074	0.00299	0.00636	-0.03490	-0.07713	-0.08514	-0.03275
136.7	-0.38568	-0.82979	-0.47943	-0.43413	-0.38227	-0.29531	-0.31381	-0.37249	-0.44724	-0.52703	-0.58111	-0.56368	-0.47819	-0.15271	0.00228	0.00942	-0.03023	-0.07304	-0.08632	-0.03130
140.6	-0.36807	-0.81483	-0.49684	-0.44284	-0.39182	-0.29930	-0.31319	-0.36570	-0.43535	-0.51228	-0.56996	-0.56440	-0.48562	-0.16545	0.00153	0.01238	-0.02553	-0.06882	-0.08717	-0.03011
144.5	-0.35134	-0.79917	-0.51700	-0.45151	-0.40092	-0.30419	-0.31343	-0.35933	-0.42368	-0.49730	-0.55800	-0.56364	-0.49145	-0.17858	0.00091	0.01546	-0.02068	-0.06436	-0.08786	-0.02939
148.4	-0.33573	-0.78326	-0.53982	-0.46017	-0.40951	-0.30984	-0.31434	-0.35322	-0.41213	-0.48225	-0.54519	-0.56166	-0.49592	-0.19205	0.00034	0.01916	-0.01553	-0.05935	-0.08853	-0.02884
152.3	-0.32142	-0.76749	-0.56479	-0.46892	-0.41755	-0.31610	-0.31577	-0.34730	-0.40073	-0.46724	-0.53149	-0.55844	-0.49919	-0.20582	-0.00033	0.02349	-0.00999	-0.05438	-0.08895	-0.02866
156.2	-0.30855	-0.75212	-0.59100	-0.47799	-0.42513	-0.32289	-0.31761	-0.34162	-0.38969	-0.45253	-0.51716	-0.55405	-0.50138	-0.21931	-0.00134	0.02791	-0.00414	-0.04938	-0.08904	-0.02876
160.1	-0.29744	-0.73728	-0.61726	-0.48767	-0.43247	-0.33009	-0.31973	-0.33627	-0.37913	-0.43824	-0.50253	-0.54854	-0.50232	-0.23257	-0.00333	0.03234	0.00201	-0.04411	-0.08900	-0.02891
164.0	-0.28830	-0.72320	-0.64217	-0.49829	-0.43984	-0.33762	-0.32207	-0.33128	-0.36917	-0.42439	-0.48776	-0.54183	-0.50165	-0.24578	-0.00681	0.03679	0.00851	-0.03866	-0.08879	-0.02927
167.8	-0.28129	-0.70992	-0.66436	-0.51023	-0.44756	-0.34538	-0.32456	-0.32682	-0.35990	-0.41112	-0.47310	-0.53405	-0.49937	-0.25868	-0.01157	0.04078	0.01508	-0.03315	-0.08838	-0.02967
171.7	-0.27638	-0.69748	-0.68255	-0.52378	-0.45596	-0.35332	-0.32723	-0.32302	-0.35143	-0.39855	-0.45870	-0.52536	-0.49608	-0.27130	-0.01710	0.04426	0.02131	-0.02784	-0.08775	-0.03022
175.6	-0.27328	-0.68598	-0.69577	-0.53916	-0.46534	-0.36140	-0.33008	-0.31994	-0.34388	-0.38680	-0.44472	-0.51589	-0.49209	-0.28393	-0.02344	0.04710	0.02730	-0.02308	-0.08696	-0.03129
179.5	-0.27194	-0.67533	-0.70340	-0.55645	-0.47602	-0.36961	-0.33319	-0.31767	-0.33724	-0.37597	-0.43128	-0.50581	-0.48764	-0.29646	-0.03071	0.04897	0.03307	-0.01894	-0.08603	-0.03286
183.4	-0.27261	-0.66546	-0.70521	-0.57558	-0.48823	-0.37796	-0.33659	-0.31625	-0.33155	-0.36600	-0.41845	-0.49541	-0.48282	-0.30819	-0.03844	0.04995	0.03800	-0.01526	-0.08488	-0.03490
187.3	-0.27533	-0.65628	-0.70131	-0.59633	-0.50214	-0.38644	-0.34033	-0.31573	-0.32663	-0.35677	-0.40627	-0.48475	-0.47703	-0.31852	-0.04652	0.04989	0.04187	-0.01197	-0.08351	-0.03726
191.2	-0.28001	-0.64792	-0.69219	-0.61830	-0.51782	-0.39513	-0.34450	-0.31616	-0.32227	-0.34822	-0.39450	-0.47376	-0.47002	-0.32775	-0.05502	0.04868	0.04508	-0.00881	-0.08167	-0.03973
195.1	-0.28642	-0.64034	-0.67862	-0.64090	-0.53535	-0.40406	-0.34914	-0.31744	-0.31843	-0.34019	-0.38297	-0.46249	-0.46213	-0.33639	-0.06402	0.04668	0.04784	-0.00556	-0.07934	-0.04236
199.0	-0.29453	-0.63339	-0.66162	-0.66346	-0.55470	-0.41328	-0.35427	-0.31940	-0.31496	-0.33250	-0.37157	-0.45104	-0.45370	-0.34416	-0.07365	0.04385	0.05010	-0.00207	-0.07675	-0.04509
202.9	-0.30435	-0.62702	-0.64233	-0.68525	-0.57569	-0.42288	-0.35994	-0.32197	-0.31178	-0.32507	-0.36029	-0.43941	-0.44482	-0.35093	-0.08387	0.04008	0.05223	0.00140	-0.07393	-0.04766
206.8	-0.31571	-0.62101	-0.62195	-0.70550	-0.59805	-0.43292	-0.36615	-0.32504	-0.30894	-0.31798	-0.34934	-0.42759	-0.43543	-0.35682	-0.09450	0.03579	0.05451	0.00477	-0.07121	-0.05023
210.7	-0.32844	-0.61532	-0.60162	-0.72343	-0.62133	-0.44350	-0.37292	-0.32855	-0.30640	-0.31126	-0.33882	-0.41559	-0.42552	-0.36141	-0.10522	0.03096	0.05642	0.00861	-0.06861	-0.05293
214.6	-0.34253	-0.60985	-0.58237	-0.73834	-0.64492	-0.45471	-0.38031	-0.33237	-0.30420	-0.30487	-0.32870	-0.40355	-0.41512	-0.36451	-0.11603	0.02548	0.05793	0.01282	-0.06629	-0.05556
218.5	-0.35816	-0.60449	-0.56500	-0.74968	-0.66826	-0.46666	-0.38836	-0.33638	-0.30232	-0.29882	-0.31899	-0.39161	-0.40429	-0.36631	-0.12693	0.01971	0.05954	0.01706	-0.06447	-0.05840
222.4	-0.37549	-0.59931	-0.55014	-0.75700	-0.69072	-0.47941	-0.39712	-0.34058	-0.30083	-0.29315	-0.30958	-0.37976	-0.39328	-0.36690	-0.13762	0.01330	0.06110	0.02126	-0.06283	-0.06143
226.3	-0.39440	-0.59424	-0.53816	-0.76004	-0.71165	-0.49307	-0.40665	-0.34505	-0.29988	-0.28788	-0.30056	-0.36797	-0.38226	-0.36670	-0.14828	0.00616	0.06210	0.02531	-0.06128	-0.06444
230.2	-0.41470	-0.58909	-0.52919	-0.75875	-0.73040	-0.50766	-0.41698	-0.34989	-0.29951	-0.28313	-0.29213	-0.35625	-0.37095	-0.36595	-0.15912	-0.00125	0.06282	0.02909	-0.05977	-0.06760
234.1	-0.43652	-0.58382	-0.52320	-0.75325	-0.74644	-0.52321	-0.42814	-0.35517	-0.29978	-0.27895	-0.28433	-0.34469	-0.35919	-0.36460	-0.16989	-0.00945	0.06334	0.03227	-0.05806	-0.07070
238.0	-0.46003	-0.57861	-0.51993	-0.74390	-0.75943	-0.53972	-0.44019	-0.36097	-0.30066	-0.27533	-0.27716	-0.33344	-0.34732	-0.36273	-0.18030	-0.01854	0.06314	0.03503	-0.05621	-0.07361
241.9	-0.48515	-0.57342	-0.51905	-0.73117	-0.76922	-0.55716	-0.45315	-0.36754	-0.30224	-0.27242	-0.27054	-0.32251	-0.33578	-0.36023	-0.19031	-0.02816	0.06249	0.03735	-0.05408	-0.07626
245.8	-0.51169	-0.56797	-0.52013	-0.71566	-0.77573	-0.57545	-0.46708	-0.37511	-0.30468	-0.27024	-0.26449	-0.31193	-0.32460	-0.35718	-0.19969	-0.03839	0.06154	0.03904	-0.05167	-0.07862
249.7	-0.53933	-0.56200	-0.52264	-0.69812	-0.77900	-0.59447	-0.48206	-0.38373	-0.30798	-0.26875	-0.25916	-0.30188	-0.31377	-0.35349	-0.20810	-0.04909	0.05973	0.04059	-0.04928	-0.08084
253.5	-0.56766	-0.55544	-0.52607	-0.67930	-0.77911	-0.61402	-0.49805	-0.39345	-0.31212	-0.26792	-0.25450	-0.29242	-0.30343	-0.34881	-0.21555	-0.06007	0.05696	0.04213	-0.04677	-0.08272
257.4	-0.59623	-0.54799	-0.52988	-0.65998	-0.77623	-0.63389	-0.51501	-0.40431	-0.31695	-0.26766	-0.25035	-0.28350	-0.29341	-0.34336	-0.22222	-0.07133	0.05342	0.04355	-0.04406	-0.08420
261.3	-0.62474	-0.53856	-0.53355	-0.64087	-0.77065	-0.65380	-0.53289	-0.41629	-0.32234	-0.26780	-0.24635	-0.27500	-0.28349	-0.33704	-0.22808	-0.08282	0.04912	0.04501	-0.04137	-0.08528
265.2	-0.65302	-0.52652	-0.53664	-0.62257	-0.76267	-0.67349	-0.55154	-0.42927	-0.32823	-0.26809	-0.24236	-0.26677	-0.27337	-0.32974	-0.23307	-0.09414	0.04406	0.04653	-0.03870	-0.08583
269.1	-0.68114	-0.51211	-0.53874	-0.60557	-0.75262	-0.69265	-0.57076	-0.44306	-0.33445	-0.26842	-0.23837	-0.25868	-0.26295	-0.32175	-0.23719	-0.10493	0.03856	0.04796	-0.03604	-0.08612
273.0	-0.70959	-0.49533	-0.53953	-0.59020	-0.74101	-0.71096	-0.59038	-0.45756	-0.34096	-0.26875	-0.23425	-0.25059	-0.25250	-0.31285	-0.24051	-0.11517	0.03269	0.04933	-0.03356	-0.08625
276.9	-0.73940	-0.47746	-0.53880	-0.57667	-0.72831	-0.72812	-0.61015	-0.47269	-0.34790	-0.26920	-0.23009	-0.24245	-0.24231	-0.30322	-0.24277	-0.12471	0.02643	0.05064	-0.03125	-0.08635
280.8	-0.77419	-0.46132	-0.53649	-0.56507	-0.71502	-0.74384	-0.62983	-0.48835	-0.35547	-0.27002	-0.22597	-0.23432	-0.23263	-0.29345	-0.24413	-0.13349	0.02013	0.05189	-0.02908	-0.08659
284.7	-0.82200	-0.44869	-0.53259	-0.55544	-0.70163	-0.75791	-0.64924	-0.50460	-0.36390	-0.27136	-0.22222	-0.22637	-0.22343	-0.28373	-0.24500	-0.14156	0.01370	0.05318	-0.02708	-0.08720
288.6	-0.89195	-0.44006	-0.52710	-0.54766	-0.68846	-0.77010	-0.66814	-0.52145	-0.37345	-0.27351	-0.21932	-0.21900	-0.21468	-0.27420	-0.24569	-0.14884	0.00683	0.05425	-0.02546	-0.08818
292.5	-0.98598	-0.43457	-0.51997	-0.54149	-0.67580	-0.78025	-0.68628	-0.53889	-0.38426	-0.27682	-0.21750	-0.21248	-0.20674	-0.26504	-0.24639	-0.15552	-0.00056	0.05477	-0.02401	-0.08916
296.4	-1.09442	-0.43063	-0.51110	-0.53665	-0.66379	-0.78828	-0.70341	-0.55686	-0.39638	-0.28158	-0.21695	-0.20686	-0.19970	-0.25627	-0.24680	-0.16181	-0.00824	0.05476	-0.02246	-0.09020
300.3	-1.20122	-0.42758	-0.50036	-0.53276	-0.65242	-0.79412	-0.71927	-0.57518	-0.40969	-0.28797	-0.21773	-0.20203	-0.19346	-0.24770	-0.24650	-0.16774	-0.01630	0.05427	-0.02113	-0.09122
304.2	-1.29286	-0.42586	-0.48768	-0.52938	-0.64163	-0.79773	-0.73362	-0.59360	-0.42388	-0.29576	-0.21950	-0.19771	-0.18788	-0.23874	-0.24531	-0.17356	-0.02520	0.05317	-0.02013	-0.09185
308.1	-1.36246	-0.42687	-0.47299	-0.52606	-0.63130	-0.79908	-0.74627	-0.61169	-0.43865	-0.30458	-0.22173	-0.19370	-0.18249	-0.22913	-0.24303	-0.17941	-0.03490	0.05120	-0.01940	-0.09211
312.0	-1.40904	-0.43177	-0.45638	-0.52242	-0.62139	-0.79825	-0.75703	-0.62904	-0.45386	-0.31423	-0.22417	-0.18975	-0.17682	-0.21925	-0.23957	-0.18479	-0.04504	0.04842	-0.01889	-0.09196
315.9	-1.43615	-0.44000	-0.43807	-0.51814	-0.61189	-0.79532	-0.76577	-0.64540	-0.46939	-0.32431	-0.22674	-0.18576	-0.17081	-0.20932	-0.23488	-0.18975	-0.05552	0.04473	-0.01869	-0.09161
319.8	-1.44920	-0.45066	-0.41843	-0.51296	-0.60274	-0.79046	-0.77253	-0.66067	-0.48523	-0.33467	-0.22948	-0.18193	-0.16461	-0.19987	-0.22932	-0.19415	-0.06607	0.04021	-0.01885	-0.09157
323.7	-1.45238	-0.46335	-0.39798	-0.50673	-0.59392	-0.78389	-0.77739	-0.67485	-0.50145	-0.34561	-0.23274	-0.17846	-0.15862	-0.19110	-0.22351	-0.19729	-0.07621	0.03526	-0.01907	-0.09167
327.6	-1.45069	-0.47743	-0.37732	-0.49930	-0.58544	-0.77583	-0.78047	-0.68795	-0.51810	-0.35731	-0.23697	-0.17571	-0.15343	-0.18263	-0.21770	-0.19959	-0.08576	0.03004	-0.01918	-0.09199
331.5	-1.44936	-0.49187	-0.35717	-0.49060	-0.57721	-0.76655	-0.78198	-0.70004	-0.53524	-0.37020	-0.24282	-0.17413	-0.14936	-0.17461	-0.21202	-0.20099	-0.09453	0.02478	-0.01905	-0.09280
335.3	-1.45032	-0.50614	-0.33822	-0.48056	-0.56908	-0.75629	-0.78207	-0.71130	-0.55298	-0.38480	-0.25057	-0.17380	-0.14639	-0.16711	-0.20637	-0.20121	-0.10259	0.01950	-0.01854	-0.09349
339.2	-1.45345	-0.52039	-0.32115	-0.46921	-0.56087	-0.74526	-0.78092	-0.72186	-0.57130	-0.40120	-0.25998	-0.17447	-0.14435	-0.16046	-0.20040	-0.20075	-0.11010	0.01430	-0.01778	-0.09396
343.1	-1.45723	-0.53449	-0.30657	-0.45662	-0.55229	-0.73367	-0.77871	-0.73170	-0.58990	-0.41904	-0.27071	-0.17595	-0.14291	-0.15470	-0.19412	-0.19962	-0.11672	0.00919	-0.01687	-0.09418
347.0	-1.45959	-0.54843	-0.29489	-0.44287	-0.54297	-0.72167	-0.77555	-0.74076	-0.60840	-0.43776	-0.28238	-0.17810	-0.14190	-0.14882	-0.18771	-0.19775	-0.12262	0.00373	-0.01583	-0.09354
350.9	-1.45956	-0.56192	-0.28638	-0.42813	-0.53260	-0.70937	-0.77151	-0.74897	-0.62644	-0.45691	-0.29469	-0.18066	-0.14126	-0.14221	-0.18131	-0.19532	-0.12829	-0.00211	-0.01487	-0.09229
354.8	-1.45718	-0.57448	-0.28111	-0.41264	-0.52092	-0.69688	-0.76665	-0.75618	-0.64353	-0.47595	-0.30745	-0.18363	-0.14075	-0.13503	-0.17478	-0.19254	-0.13347	-0.00815	-0.01398	-0.09049
358.7	-1.45321	-0.58686	-0.27899	-0.39664	-0.50777	-0.68422	-0.76099	-0.76209	-0.65932	-0.49429	-0.32034	-0.18706	-0.14014	-0.12785	-0.16776	-0.18945	-0.13778	-0.01431	-0.01296	-0.08813
