#Phase-averaged CPs at a point just inside slot and at 19 x/c wall locations (with mean Cp subtracted).
#Cp0.6508 gives Cp (with mean Cp subtracted) inside the slot at location x/c=0.6508, y/c=0.1119
#The remaining 19 Cps are on the hump surface and downstream wall (with mean Cp subtracted).
variables="Phase(deg)","Cp0.6508","Cp0.659","Cp0.689","Cp0.712","Cp0.734","Cp0.755","Cp0.778","Cp0.801","Cp0.823","Cp0.844","Cp0.866","Cp0.889","Cp0.911","Cp0.962","Cp1.010","Cp1.046","Cp1.094","Cp1.160","Cp1.260","Cp1.393"
ZONE
4.2	-0.64076	0.03819	0.18743	0.11261	0.02098	-0.14350	-0.22707	-0.25270	-0.18911	-0.06564	0.06625	0.15834	0.16254	0.08154	-0.04190	-0.10947	-0.10111	0.00046	0.03465	-0.02033
8.1	-0.63267	0.02715	0.18310	0.12845	0.03747	-0.13050	-0.21947	-0.25451	-0.20161	-0.08217	0.05295	0.15348	0.16305	0.08706	-0.03452	-0.10546	-0.10363	-0.00628	0.03572	-0.01783
12.0	-0.62278	0.01650	0.17679	0.14352	0.05477	-0.11731	-0.21110	-0.25475	-0.21289	-0.09789	0.03940	0.14797	0.16253	0.09282	-0.02749	-0.10100	-0.10541	-0.01319	0.03669	-0.01542
15.9	-0.61109	0.00618	0.16892	0.15744	0.07250	-0.10388	-0.20198	-0.25348	-0.22284	-0.11305	0.02552	0.14169	0.16063	0.09889	-0.02084	-0.09630	-0.10649	-0.02023	0.03723	-0.01336
19.8	-0.59665	-0.00426	0.15994	0.16988	0.09011	-0.09019	-0.19205	-0.25081	-0.23138	-0.12785	0.01097	0.13468	0.15744	0.10398	-0.01450	-0.09158	-0.10707	-0.02739	0.03744	-0.01167
23.7	-0.57826	-0.01488	0.15032	0.18053	0.10700	-0.07621	-0.18132	-0.24691	-0.23872	-0.14264	-0.00459	0.12679	0.15325	0.10805	-0.00832	-0.08675	-0.10731	-0.03443	0.03720	-0.01035
27.6	-0.55560	-0.02550	0.14044	0.18919	0.12270	-0.06193	-0.16984	-0.24191	-0.24490	-0.15758	-0.02140	0.11771	0.14830	0.11158	-0.00213	-0.08191	-0.10721	-0.04121	0.03629	-0.00975
31.5	-0.52908	-0.03626	0.13065	0.19578	0.13691	-0.04733	-0.15755	-0.23586	-0.24990	-0.17249	-0.03938	0.10749	0.14263	0.11484	0.00416	-0.07701	-0.10708	-0.04787	0.03490	-0.00950
35.4	-0.49843	-0.04671	0.12124	0.20027	0.14946	-0.03243	-0.14445	-0.22869	-0.25364	-0.18703	-0.05801	0.09634	0.13659	0.11858	0.01053	-0.07181	-0.10708	-0.05422	0.03302	-0.00972
39.3	-0.46299	-0.05633	0.11252	0.20275	0.16029	-0.01723	-0.13053	-0.22028	-0.25597	-0.20076	-0.07673	0.08441	0.13013	0.12270	0.01701	-0.06645	-0.10712	-0.06017	0.03077	-0.01022
43.2	-0.42405	-0.06533	0.10471	0.20338	0.16954	-0.00173	-0.11576	-0.21051	-0.25670	-0.21327	-0.09486	0.07195	0.12301	0.12676	0.02333	-0.06072	-0.10690	-0.06579	0.02819	-0.01056
47.1	-0.38279	-0.07396	0.09796	0.20237	0.17734	0.01407	-0.10011	-0.19923	-0.25546	-0.22427	-0.11166	0.05924	0.11547	0.13066	0.02926	-0.05449	-0.10607	-0.07085	0.02538	-0.01089
51.0	-0.33919	-0.08197	0.09227	0.19994	0.18385	0.03010	-0.08359	-0.18637	-0.25217	-0.23338	-0.12715	0.04634	0.10752	0.13394	0.03513	-0.04797	-0.10435	-0.07538	0.02246	-0.01064
54.9	-0.29304	-0.08889	0.08762	0.19634	0.18928	0.04627	-0.06629	-0.17196	-0.24703	-0.24032	-0.14174	0.03297	0.09889	0.13656	0.04100	-0.04098	-0.10179	-0.07931	0.01936	-0.00964
58.8	-0.24393	-0.09511	0.08395	0.19181	0.19380	0.06251	-0.04830	-0.15610	-0.24015	-0.24520	-0.15552	0.01894	0.08947	0.13888	0.04666	-0.03374	-0.09864	-0.08232	0.01651	-0.00793
62.7	-0.19273	-0.10094	0.08110	0.18659	0.19751	0.07867	-0.02978	-0.13902	-0.23167	-0.24829	-0.16841	0.00432	0.07915	0.14099	0.05243	-0.02660	-0.09489	-0.08425	0.01391	-0.00519
66.6	-0.14026	-0.10594	0.07890	0.18086	0.20048	0.09462	-0.01086	-0.12104	-0.22175	-0.24974	-0.18026	-0.01086	0.06799	0.14272	0.05827	-0.01928	-0.09036	-0.08532	0.01141	-0.00189
70.5	-0.08739	-0.10948	0.07717	0.17475	0.20272	0.11023	0.00827	-0.10250	-0.21048	-0.24964	-0.19107	-0.02636	0.05634	0.14349	0.06389	-0.01179	-0.08498	-0.08562	0.00943	0.00171
74.4	-0.03559	-0.11071	0.07574	0.16841	0.20425	0.12536	0.02737	-0.08359	-0.19797	-0.24786	-0.20098	-0.04173	0.04436	0.14321	0.06965	-0.00458	-0.07882	-0.08528	0.00770	0.00561
78.3	0.01359	-0.10923	0.07448	0.16194	0.20509	0.13986	0.04623	-0.06452	-0.18437	-0.24432	-0.20962	-0.05682	0.03179	0.14246	0.07569	0.00253	-0.07216	-0.08462	0.00599	0.00940
82.2	0.05781	-0.10608	0.07327	0.15545	0.20529	0.15365	0.06469	-0.04545	-0.16985	-0.23901	-0.21665	-0.07179	0.01861	0.14160	0.08160	0.00970	-0.06539	-0.08341	0.00445	0.01302
86.0	0.09585	-0.10435	0.07202	0.14901	0.20487	0.16664	0.08259	-0.02657	-0.15459	-0.23187	-0.22214	-0.08679	0.00491	0.14059	0.08686	0.01653	-0.05840	-0.08172	0.00266	0.01648
89.9	0.12838	-0.10897	0.07064	0.14264	0.20383	0.17870	0.09978	-0.00809	-0.13869	-0.22312	-0.22620	-0.10156	-0.00946	0.13904	0.09150	0.02322	-0.05142	-0.08004	0.00034	0.01955
93.8	0.15746	-0.12383	0.06897	0.13631	0.20213	0.18974	0.11614	0.00981	-0.12228	-0.21328	-0.22896	-0.11567	-0.02444	0.13674	0.09600	0.03001	-0.04476	-0.07819	-0.00244	0.02199
97.7	0.18581	-0.14828	0.06686	0.12996	0.19969	0.19968	0.13152	0.02699	-0.10555	-0.20256	-0.23041	-0.12906	-0.03967	0.13359	0.10058	0.03671	-0.03821	-0.07608	-0.00581	0.02363
101.6	0.21483	-0.17664	0.06414	0.12351	0.19640	0.20844	0.14579	0.04331	-0.08864	-0.19102	-0.23043	-0.14184	-0.05480	0.12914	0.10485	0.04324	-0.03198	-0.07404	-0.00968	0.02474
105.5	0.24439	-0.20200	0.06062	0.11686	0.19211	0.21592	0.15883	0.05871	-0.07181	-0.17887	-0.22909	-0.15392	-0.06990	0.12340	0.10845	0.04942	-0.02635	-0.07203	-0.01411	0.02559
109.4	0.27311	-0.21988	0.05615	0.10989	0.18671	0.22205	0.17051	0.07302	-0.05533	-0.16639	-0.22639	-0.16510	-0.08522	0.11670	0.11150	0.05537	-0.02123	-0.06983	-0.01896	0.02608
113.3	0.29953	-0.22947	0.05063	0.10253	0.18018	0.22680	0.18073	0.08607	-0.03945	-0.15375	-0.22237	-0.17535	-0.10075	0.10922	0.11425	0.06092	-0.01652	-0.06739	-0.02380	0.02640
117.2	0.32310	-0.23219	0.04400	0.09479	0.17262	0.23017	0.18942	0.09785	-0.02431	-0.14102	-0.21724	-0.18460	-0.11598	0.10095	0.11659	0.06575	-0.01202	-0.06500	-0.02832	0.02704
121.1	0.34408	-0.22954	0.03616	0.08668	0.16413	0.23214	0.19658	0.10847	-0.00985	-0.12809	-0.21113	-0.19283	-0.13054	0.09174	0.11811	0.07027	-0.00744	-0.06262	-0.03208	0.02785
125.0	0.36344	-0.22297	0.02698	0.07829	0.15493	0.23277	0.20224	0.11809	0.00406	-0.11507	-0.20396	-0.20004	-0.14427	0.08178	0.11874	0.07443	-0.00289	-0.05977	-0.03511	0.02897
128.9	0.38206	-0.21349	0.01625	0.06969	0.14526	0.23212	0.20645	0.12686	0.01745	-0.10189	-0.19566	-0.20581	-0.15663	0.07118	0.11864	0.07785	0.00160	-0.05671	-0.03748	0.03032
132.8	0.40046	-0.20151	0.00365	0.06098	0.13539	0.23026	0.20933	0.13486	0.03025	-0.08822	-0.18627	-0.20997	-0.16736	0.05991	0.11809	0.08094	0.00621	-0.05335	-0.03913	0.03161
136.7	0.41867	-0.18774	-0.01120	0.05223	0.12555	0.22728	0.21099	0.14218	0.04248	-0.07395	-0.17597	-0.21248	-0.17652	0.04795	0.11738	0.08400	0.01088	-0.04926	-0.04030	0.03306
140.6	0.43628	-0.17279	-0.02861	0.04352	0.11600	0.22329	0.21162	0.14897	0.05437	-0.05920	-0.16482	-0.21320	-0.18395	0.03520	0.11663	0.08696	0.01558	-0.04503	-0.04116	0.03425
144.5	0.45301	-0.15712	-0.04877	0.03485	0.10690	0.21840	0.21138	0.15534	0.06604	-0.04422	-0.15286	-0.21244	-0.18978	0.02207	0.11601	0.09004	0.02043	-0.04057	-0.04185	0.03496
148.4	0.46863	-0.14121	-0.07158	0.02619	0.09831	0.21275	0.21047	0.16145	0.07759	-0.02917	-0.14005	-0.21046	-0.19424	0.00860	0.11544	0.09374	0.02558	-0.03557	-0.04251	0.03552
152.3	0.48294	-0.12544	-0.09655	0.01744	0.09027	0.20648	0.20904	0.16737	0.08899	-0.01416	-0.12635	-0.20724	-0.19752	-0.00516	0.11477	0.09807	0.03112	-0.03059	-0.04294	0.03570
156.2	0.49580	-0.11007	-0.12276	0.00837	0.08269	0.19970	0.20720	0.17305	0.10002	0.00055	-0.11202	-0.20285	-0.19970	-0.01866	0.11376	0.10249	0.03697	-0.02560	-0.04303	0.03560
160.1	0.50692	-0.09524	-0.14902	-0.00131	0.07536	0.19250	0.20507	0.17840	0.11059	0.01484	-0.09739	-0.19734	-0.20065	-0.03192	0.11177	0.10692	0.04312	-0.02033	-0.04298	0.03544
164.0	0.51605	-0.08115	-0.17394	-0.01193	0.06799	0.18497	0.20274	0.18339	0.12054	0.02869	-0.08262	-0.19063	-0.19998	-0.04513	0.10829	0.11137	0.04962	-0.01488	-0.04278	0.03509
167.8	0.52307	-0.06787	-0.19612	-0.02387	0.06026	0.17721	0.20024	0.18785	0.12982	0.04196	-0.06796	-0.18285	-0.19770	-0.05802	0.10353	0.11536	0.05619	-0.00937	-0.04237	0.03469
171.7	0.52797	-0.05543	-0.21431	-0.03742	0.05187	0.16927	0.19758	0.19165	0.13828	0.05453	-0.05356	-0.17416	-0.19440	-0.07064	0.09800	0.11884	0.06242	-0.00406	-0.04173	0.03414
175.6	0.53107	-0.04393	-0.22753	-0.05280	0.04248	0.16119	0.19473	0.19473	0.14583	0.06628	-0.03958	-0.16468	-0.19042	-0.08328	0.09166	0.12167	0.06841	0.00070	-0.04094	0.03307
179.5	0.53241	-0.03328	-0.23517	-0.07009	0.03180	0.15298	0.19162	0.19700	0.15248	0.07710	-0.02614	-0.15461	-0.18597	-0.09581	0.08439	0.12355	0.07418	0.00485	-0.04002	0.03150
183.4	0.53174	-0.02341	-0.23697	-0.08922	0.01959	0.14463	0.18822	0.19842	0.15817	0.08708	-0.01331	-0.14420	-0.18114	-0.10753	0.07665	0.12453	0.07911	0.00852	-0.03886	0.02945
187.3	0.52902	-0.01423	-0.23308	-0.10997	0.00568	0.13615	0.18448	0.19894	0.16309	0.09631	-0.00113	-0.13355	-0.17536	-0.11787	0.06858	0.12447	0.08298	0.01181	-0.03750	0.02710
191.2	0.52435	-0.00587	-0.22395	-0.13194	-0.01000	0.12746	0.18031	0.19851	0.16745	0.10486	0.01064	-0.12256	-0.16834	-0.12709	0.06008	0.12326	0.08619	0.01497	-0.03565	0.02463
195.1	0.51793	0.00171	-0.21039	-0.15454	-0.02753	0.11853	0.17567	0.19723	0.17129	0.11289	0.02218	-0.11129	-0.16045	-0.13573	0.05108	0.12126	0.08895	0.01823	-0.03333	0.02200
199.0	0.50982	0.00866	-0.19339	-0.17710	-0.04688	0.10931	0.17054	0.19527	0.17476	0.12058	0.03357	-0.09984	-0.15203	-0.14351	0.04145	0.11842	0.09121	0.02171	-0.03074	0.01926
202.9	0.50000	0.01503	-0.17410	-0.19889	-0.06787	0.09971	0.16486	0.19270	0.17794	0.12801	0.04485	-0.08821	-0.14315	-0.15027	0.03123	0.11466	0.09334	0.02518	-0.02792	0.01669
206.8	0.48864	0.02104	-0.15372	-0.21914	-0.09023	0.08967	0.15866	0.18963	0.18078	0.13510	0.05580	-0.07639	-0.13376	-0.15617	0.02060	0.11037	0.09562	0.02856	-0.02519	0.01412
210.7	0.47591	0.02673	-0.13339	-0.23707	-0.11350	0.07909	0.15188	0.18612	0.18332	0.14182	0.06632	-0.06439	-0.12385	-0.16076	0.00988	0.10554	0.09753	0.03239	-0.02260	0.01143
214.6	0.46182	0.03220	-0.11413	-0.25198	-0.13710	0.06787	0.14450	0.18230	0.18552	0.14821	0.07644	-0.05235	-0.11344	-0.16386	-0.00094	0.10006	0.09904	0.03661	-0.02027	0.00880
218.5	0.44619	0.03756	-0.09676	-0.26332	-0.16044	0.05593	0.13645	0.17829	0.18740	0.15425	0.08615	-0.04041	-0.10261	-0.16565	-0.01183	0.09429	0.10065	0.04084	-0.01846	0.00596
222.4	0.42886	0.04274	-0.08190	-0.27064	-0.18290	0.04318	0.12769	0.17409	0.18889	0.15992	0.09556	-0.02856	-0.09161	-0.16624	-0.02252	0.08788	0.10221	0.04504	-0.01681	0.00293
226.3	0.40996	0.04781	-0.06992	-0.27368	-0.20383	0.02952	0.11816	0.16962	0.18984	0.16520	0.10459	-0.01677	-0.08058	-0.16604	-0.03318	0.08074	0.10321	0.04910	-0.01527	-0.00009
230.2	0.38965	0.05296	-0.06096	-0.27239	-0.22258	0.01492	0.10782	0.16478	0.19021	0.16994	0.11302	-0.00504	-0.06928	-0.16529	-0.04402	0.07333	0.10393	0.05287	-0.01375	-0.00324
234.1	0.36783	0.05823	-0.05497	-0.26689	-0.23862	-0.00062	0.09666	0.15950	0.18994	0.17413	0.12082	0.00651	-0.05751	-0.16394	-0.05479	0.06513	0.10445	0.05606	-0.01204	-0.00634
238.0	0.34432	0.06344	-0.05170	-0.25754	-0.25161	-0.01713	0.08462	0.15370	0.18906	0.17775	0.12799	0.01776	-0.04564	-0.16207	-0.06521	0.05604	0.10425	0.05881	-0.01020	-0.00925
241.9	0.31920	0.06863	-0.05082	-0.24481	-0.26139	-0.03457	0.07166	0.14713	0.18748	0.18066	0.13461	0.02869	-0.03410	-0.15957	-0.07521	0.04642	0.10360	0.06113	-0.00807	-0.01190
245.8	0.29267	0.07408	-0.05189	-0.22930	-0.26791	-0.05286	0.05772	0.13956	0.18504	0.18284	0.14065	0.03927	-0.02292	-0.15653	-0.08459	0.03619	0.10265	0.06282	-0.00565	-0.01427
249.7	0.26502	0.08005	-0.05441	-0.21176	-0.27118	-0.07188	0.04275	0.13094	0.18174	0.18433	0.14599	0.04932	-0.01210	-0.15283	-0.09300	0.02549	0.10084	0.06438	-0.00326	-0.01648
253.5	0.23669	0.08661	-0.05784	-0.19294	-0.27129	-0.09143	0.02676	0.12122	0.17760	0.18516	0.15064	0.05878	-0.00175	-0.14815	-0.10045	0.01451	0.09807	0.06591	-0.00076	-0.01836
257.4	0.20812	0.09406	-0.06164	-0.17362	-0.26841	-0.11130	0.00980	0.11036	0.17277	0.18542	0.15479	0.06770	0.00826	-0.14271	-0.10712	0.00325	0.09453	0.06733	0.00196	-0.01985
261.3	0.17961	0.10349	-0.06532	-0.15451	-0.26283	-0.13122	-0.00808	0.09838	0.16738	0.18528	0.15880	0.07620	0.01819	-0.13638	-0.11298	-0.00824	0.09023	0.06879	0.00465	-0.02092
265.2	0.15133	0.11553	-0.06840	-0.13621	-0.25485	-0.15091	-0.02673	0.08540	0.16149	0.18499	0.16278	0.08443	0.02830	-0.12908	-0.11797	-0.01957	0.08516	0.07031	0.00732	-0.02148
269.1	0.12321	0.12994	-0.07050	-0.11921	-0.24480	-0.17006	-0.04596	0.07161	0.15527	0.18466	0.16677	0.09252	0.03873	-0.12109	-0.12210	-0.03035	0.07967	0.07175	0.00997	-0.02177
273.0	0.09477	0.14672	-0.07130	-0.10384	-0.23319	-0.18837	-0.06557	0.05711	0.14875	0.18433	0.17089	0.10061	0.04917	-0.11219	-0.12541	-0.04060	0.07380	0.07311	0.01246	-0.02189
276.9	0.06495	0.16459	-0.07057	-0.09031	-0.22049	-0.20553	-0.08534	0.04198	0.14182	0.18387	0.17506	0.10876	0.05936	-0.10256	-0.12768	-0.05013	0.06754	0.07442	0.01477	-0.02199
280.8	0.03017	0.18073	-0.06826	-0.07871	-0.20720	-0.22125	-0.10502	0.02632	0.13425	0.18306	0.17918	0.11688	0.06905	-0.09279	-0.12903	-0.05891	0.06123	0.07568	0.01693	-0.02223
284.7	-0.01765	0.19336	-0.06436	-0.06908	-0.19381	-0.23532	-0.12443	0.01007	0.12582	0.18172	0.18292	0.12483	0.07825	-0.08307	-0.12991	-0.06698	0.05481	0.07697	0.01893	-0.02284
288.6	-0.08760	0.20199	-0.05886	-0.06130	-0.18064	-0.24751	-0.14333	-0.00678	0.11627	0.17957	0.18582	0.13221	0.08699	-0.07355	-0.13059	-0.07426	0.04793	0.07803	0.02056	-0.02382
292.5	-0.18163	0.20748	-0.05174	-0.05513	-0.16798	-0.25766	-0.16147	-0.02422	0.10545	0.17626	0.18764	0.13872	0.09494	-0.06438	-0.13129	-0.08094	0.04055	0.07856	0.02201	-0.02480
296.4	-0.29006	0.21142	-0.04287	-0.05029	-0.15597	-0.26569	-0.17860	-0.04219	0.09334	0.17150	0.18819	0.14434	0.10197	-0.05561	-0.13170	-0.08723	0.03287	0.07854	0.02355	-0.02585
300.3	-0.39687	0.21447	-0.03213	-0.04640	-0.14460	-0.27153	-0.19446	-0.06052	0.08003	0.16510	0.18741	0.14917	0.10822	-0.04704	-0.13140	-0.09316	0.02480	0.07805	0.02488	-0.02686
304.2	-0.48850	0.21619	-0.01944	-0.04302	-0.13381	-0.27514	-0.20881	-0.07893	0.06584	0.15732	0.18564	0.15349	0.11380	-0.03809	-0.13021	-0.09898	0.01590	0.07695	0.02589	-0.02749
308.1	-0.55811	0.21518	-0.00475	-0.03970	-0.12348	-0.27650	-0.22147	-0.09702	0.05107	0.14850	0.18341	0.15750	0.11919	-0.02847	-0.12793	-0.10484	0.00621	0.07498	0.02662	-0.02776
312.0	-0.60469	0.21028	0.01186	-0.03606	-0.11357	-0.27566	-0.23222	-0.11437	0.03585	0.13884	0.18097	0.16146	0.12486	-0.01859	-0.12447	-0.11021	-0.00393	0.07220	0.02713	-0.02760
315.9	-0.63180	0.20205	0.03016	-0.03178	-0.10407	-0.27273	-0.24096	-0.13073	0.02033	0.12877	0.17840	0.16544	0.13087	-0.00866	-0.11978	-0.11517	-0.01441	0.06851	0.02733	-0.02726
319.8	-0.64485	0.19139	0.04981	-0.02660	-0.09492	-0.26788	-0.24772	-0.14600	0.00449	0.11840	0.17566	0.16927	0.13707	0.00079	-0.11422	-0.11957	-0.02496	0.06399	0.02716	-0.02721
323.7	-0.64803	0.17870	0.07026	-0.02037	-0.08610	-0.26130	-0.25258	-0.16018	-0.01173	0.10747	0.17240	0.17274	0.14306	0.00955	-0.10841	-0.12272	-0.03510	0.05905	0.02695	-0.02731
327.6	-0.64634	0.16462	0.09091	-0.01294	-0.07762	-0.25324	-0.25567	-0.17328	-0.02838	0.09576	0.16817	0.17549	0.14824	0.01802	-0.10261	-0.12501	-0.04465	0.05382	0.02684	-0.02763
331.5	-0.64501	0.15018	0.11107	-0.00424	-0.06938	-0.24396	-0.25717	-0.18537	-0.04552	0.08287	0.16232	0.17708	0.15232	0.02605	-0.09692	-0.12641	-0.05343	0.04856	0.02696	-0.02845
335.3	-0.64597	0.13591	0.13002	0.00580	-0.06125	-0.23370	-0.25726	-0.19663	-0.06327	0.06828	0.15457	0.17740	0.15529	0.03355	-0.09127	-0.12663	-0.06149	0.04328	0.02748	-0.02913
339.2	-0.64910	0.12166	0.14708	0.01715	-0.05305	-0.22267	-0.25611	-0.20719	-0.08158	0.05188	0.14517	0.17673	0.15733	0.04020	-0.08531	-0.12617	-0.06899	0.03808	0.02823	-0.02960
343.1	-0.65288	0.10756	0.16167	0.02974	-0.04446	-0.21108	-0.25390	-0.21704	-0.10018	0.03404	0.13443	0.17525	0.15877	0.04596	-0.07902	-0.12504	-0.07562	0.03297	0.02915	-0.02983
347.0	-0.65524	0.09362	0.17335	0.04349	-0.03515	-0.19909	-0.25074	-0.22609	-0.11869	0.01532	0.12276	0.17311	0.15978	0.05184	-0.07261	-0.12317	-0.08151	0.02751	0.03019	-0.02918
350.9	-0.65521	0.08013	0.18186	0.05823	-0.02478	-0.18679	-0.24670	-0.23430	-0.13672	-0.00383	0.11045	0.17054	0.16042	0.05845	-0.06622	-0.12074	-0.08718	0.02167	0.03114	-0.02793
354.8	-0.65283	0.06757	0.18713	0.07372	-0.01310	-0.17429	-0.24184	-0.24151	-0.15381	-0.02287	0.09769	0.16757	0.16093	0.06563	-0.05968	-0.11796	-0.09236	0.01563	0.03203	-0.02613
358.7	-0.64886	0.05519	0.18924	0.08972	0.00006	-0.16163	-0.23618	-0.24742	-0.16960	-0.04122	0.08480	0.16414	0.16154	0.07281	-0.05266	-0.11488	-0.09667	0.00948	0.03305	-0.02377
