VARIABLES = "X","Y","Z","cp"
ZONE T="CFL3D, grid 1"
 -2.500000000E+01 0.000000000E+00 0.000000000E+00 1.222746680E-03
 -2.454554749E+01 0.000000000E+00 0.000000000E+00 1.222746680E-03
 -2.409935760E+01 0.000000000E+00 0.000000000E+00 1.222746680E-03
 -2.366127586E+01 0.000000000E+00 0.000000000E+00 1.222746680E-03
 -2.323115921E+01 0.000000000E+00 0.000000000E+00 1.222746680E-03
 -2.280886269E+01 0.000000000E+00 0.000000000E+00 1.222746680E-03
 -2.239424133E+01 0.000000000E+00 0.000000000E+00 1.222746680E-03
 -2.198715591E+01 0.000000000E+00 0.000000000E+00 1.222746680E-03
 -2.158747101E+01 0.000000000E+00 0.000000000E+00 1.222746680E-03
 -2.119505310E+01 0.000000000E+00 0.000000000E+00 1.222746680E-03
 -2.080976677E+01 0.000000000E+00 0.000000000E+00 1.222746680E-03
 -2.043148422E+01 0.000000000E+00 0.000000000E+00 1.222746680E-03
 -2.006007957E+01 0.000000000E+00 0.000000000E+00 1.222746680E-03
 -1.969542503E+01 0.000000000E+00 0.000000000E+00 1.222746680E-03
 -1.933740044E+01 0.000000000E+00 0.000000000E+00 1.222746680E-03
 -1.898588371E+01 0.000000000E+00 0.000000000E+00 1.222746680E-03
 -1.864075470E+01 0.000000000E+00 0.000000000E+00 1.222746680E-03
 -1.830190277E+01 0.000000000E+00 0.000000000E+00 1.219766447E-03
 -1.796920776E+01 0.000000000E+00 0.000000000E+00 1.219766447E-03
 -1.764256096E+01 0.000000000E+00 0.000000000E+00 1.219766447E-03
 -1.732185364E+01 0.000000000E+00 0.000000000E+00 1.219766447E-03
 -1.700697517E+01 0.000000000E+00 0.000000000E+00 1.222746680E-03
 -1.669782066E+01 0.000000000E+00 0.000000000E+00 1.222746680E-03
 -1.639428520E+01 0.000000000E+00 0.000000000E+00 1.222746680E-03
 -1.609626770E+01 0.000000000E+00 0.000000000E+00 1.219766447E-03
 -1.580366802E+01 0.000000000E+00 0.000000000E+00 1.222746680E-03
 -1.551638699E+01 0.000000000E+00 0.000000000E+00 1.222746680E-03
 -1.523432827E+01 0.000000000E+00 0.000000000E+00 1.222746680E-03
 -1.495739651E+01 0.000000000E+00 0.000000000E+00 1.222746680E-03
 -1.468549919E+01 0.000000000E+00 0.000000000E+00 1.222746680E-03
 -1.441854382E+01 0.000000000E+00 0.000000000E+00 1.222746680E-03
 -1.415644169E+01 0.000000000E+00 0.000000000E+00 1.222746680E-03
 -1.389910412E+01 0.000000000E+00 0.000000000E+00 1.222746680E-03
 -1.364644432E+01 0.000000000E+00 0.000000000E+00 1.222746680E-03
 -1.339837646E+01 0.000000000E+00 0.000000000E+00 1.222746680E-03
 -1.315481949E+01 0.000000000E+00 0.000000000E+00 1.222746680E-03
 -1.291568851E+01 0.000000000E+00 0.000000000E+00 1.222746680E-03
 -1.268090534E+01 0.000000000E+00 0.000000000E+00 1.222746680E-03
 -1.245038986E+01 0.000000000E+00 0.000000000E+00 1.222746680E-03
 -1.222406483E+01 0.000000000E+00 0.000000000E+00 1.222746680E-03
 -1.200185299E+01 0.000000000E+00 0.000000000E+00 1.222746680E-03
 -1.178368187E+01 0.000000000E+00 0.000000000E+00 1.225726912E-03
 -1.156947613E+01 0.000000000E+00 0.000000000E+00 1.222746680E-03
 -1.135916328E+01 0.000000000E+00 0.000000000E+00 1.225726912E-03
 -1.115267467E+01 0.000000000E+00 0.000000000E+00 1.222746680E-03
 -1.094993877E+01 0.000000000E+00 0.000000000E+00 1.225726912E-03
 -1.075088882E+01 0.000000000E+00 0.000000000E+00 1.225726912E-03
 -1.055545712E+01 0.000000000E+00 0.000000000E+00 1.225726912E-03
 -1.036357784E+01 0.000000000E+00 0.000000000E+00 1.228707144E-03
 -1.017518616E+01 0.000000000E+00 0.000000000E+00 1.228707144E-03
 -9.990220070E+00 0.000000000E+00 0.000000000E+00 1.228707144E-03
 -9.808614731E+00 0.000000000E+00 0.000000000E+00 1.228707144E-03
 -9.630311966E+00 0.000000000E+00 0.000000000E+00 1.228707144E-03
 -9.455249786E+00 0.000000000E+00 0.000000000E+00 1.231687376E-03
 -9.283370018E+00 0.000000000E+00 0.000000000E+00 1.231687376E-03
 -9.114614487E+00 0.000000000E+00 0.000000000E+00 1.231687376E-03
 -8.948925972E+00 0.000000000E+00 0.000000000E+00 1.234667609E-03
 -8.786250114E+00 0.000000000E+00 0.000000000E+00 1.237647841E-03
 -8.626531601E+00 0.000000000E+00 0.000000000E+00 1.237647841E-03
 -8.469716072E+00 0.000000000E+00 0.000000000E+00 1.240628073E-03
 -8.315751076E+00 0.000000000E+00 0.000000000E+00 1.240628073E-03
 -8.164585114E+00 0.000000000E+00 0.000000000E+00 1.240628073E-03
 -8.016166687E+00 0.000000000E+00 0.000000000E+00 1.243608305E-03
 -7.870445728E+00 0.000000000E+00 0.000000000E+00 1.246588537E-03
 -7.727374077E+00 0.000000000E+00 0.000000000E+00 1.249568770E-03
 -7.586903095E+00 0.000000000E+00 0.000000000E+00 1.252549002E-03
 -7.448986053E+00 0.000000000E+00 0.000000000E+00 1.252549002E-03
 -7.313575268E+00 0.000000000E+00 0.000000000E+00 1.258509466E-03
 -7.180626392E+00 0.000000000E+00 0.000000000E+00 1.261489699E-03
 -7.050094128E+00 0.000000000E+00 0.000000000E+00 1.264469931E-03
 -6.921934605E+00 0.000000000E+00 0.000000000E+00 1.267450163E-03
 -6.796104908E+00 0.000000000E+00 0.000000000E+00 1.270430395E-03
 -6.672562599E+00 0.000000000E+00 0.000000000E+00 1.276390860E-03
 -6.551265717E+00 0.000000000E+00 0.000000000E+00 1.279371092E-03
 -6.432173729E+00 0.000000000E+00 0.000000000E+00 1.285331557E-03
 -6.315246582E+00 0.000000000E+00 0.000000000E+00 1.291292021E-03
 -6.200444698E+00 0.000000000E+00 0.000000000E+00 1.294272253E-03
 -6.087729931E+00 0.000000000E+00 0.000000000E+00 1.300232718E-03
 -5.977064133E+00 0.000000000E+00 0.000000000E+00 1.309173414E-03
 -5.868409634E+00 0.000000000E+00 0.000000000E+00 1.315133879E-03
 -5.761730671E+00 0.000000000E+00 0.000000000E+00 1.321094343E-03
 -5.656990528E+00 0.000000000E+00 0.000000000E+00 1.327054808E-03
 -5.554154396E+00 0.000000000E+00 0.000000000E+00 1.335995505E-03
 -5.453187466E+00 0.000000000E+00 0.000000000E+00 1.344936201E-03
 -5.354055882E+00 0.000000000E+00 0.000000000E+00 1.350896666E-03
 -5.256726265E+00 0.000000000E+00 0.000000000E+00 1.359837363E-03
 -5.161166191E+00 0.000000000E+00 0.000000000E+00 1.368778059E-03
 -5.067342758E+00 0.000000000E+00 0.000000000E+00 1.377718756E-03
 -4.975224972E+00 0.000000000E+00 0.000000000E+00 1.389639685E-03
 -4.975224972E+00 0.000000000E+00 0.000000000E+00 1.389639685E-03
 -4.884781361E+00 0.000000000E+00 0.000000000E+00 1.401560614E-03
 -4.795981884E+00 0.000000000E+00 0.000000000E+00 1.410501311E-03
 -4.708796501E+00 0.000000000E+00 0.000000000E+00 1.422422240E-03
 -4.623196125E+00 0.000000000E+00 0.000000000E+00 1.431362936E-03
 -4.539151669E+00 0.000000000E+00 0.000000000E+00 1.446264097E-03
 -4.456634998E+00 0.000000000E+00 0.000000000E+00 1.458185026E-03
 -4.375617981E+00 0.000000000E+00 0.000000000E+00 1.473086188E-03
 -4.296073914E+00 0.000000000E+00 0.000000000E+00 1.487987349E-03
 -4.217975616E+00 0.000000000E+00 0.000000000E+00 1.499908278E-03
 -4.141296864E+00 0.000000000E+00 0.000000000E+00 1.517789671E-03
 -4.066011906E+00 0.000000000E+00 0.000000000E+00 1.529710600E-03
 -3.992095470E+00 0.000000000E+00 0.000000000E+00 1.547591994E-03
 -3.919522524E+00 0.000000000E+00 0.000000000E+00 1.565473387E-03
 -3.848268747E+00 0.000000000E+00 0.000000000E+00 1.583354780E-03
 -3.778310299E+00 0.000000000E+00 0.000000000E+00 1.601236174E-03
 -3.709623337E+00 0.000000000E+00 0.000000000E+00 1.619117567E-03
 -3.642184973E+00 0.000000000E+00 0.000000000E+00 1.639979193E-03
 -3.575972319E+00 0.000000000E+00 0.000000000E+00 1.660840819E-03
 -3.510963202E+00 0.000000000E+00 0.000000000E+00 1.678722212E-03
 -3.447135687E+00 0.000000000E+00 0.000000000E+00 1.702564070E-03
 -3.384468317E+00 0.000000000E+00 0.000000000E+00 1.723425696E-03
 -3.322940111E+00 0.000000000E+00 0.000000000E+00 1.747267554E-03
 -3.262530327E+00 0.000000000E+00 0.000000000E+00 1.771109411E-03
 -3.203218460E+00 0.000000000E+00 0.000000000E+00 1.794951269E-03
 -3.144984961E+00 0.000000000E+00 0.000000000E+00 1.821773360E-03
 -3.087809563E+00 0.000000000E+00 0.000000000E+00 1.848595450E-03
 -3.031673670E+00 0.000000000E+00 0.000000000E+00 1.872437308E-03
 -2.976557970E+00 0.000000000E+00 0.000000000E+00 1.902239630E-03
 -2.922444105E+00 0.000000000E+00 0.000000000E+00 1.929061720E-03
 -2.869313717E+00 0.000000000E+00 0.000000000E+00 1.955883810E-03
 -2.817149162E+00 0.000000000E+00 0.000000000E+00 1.988666365E-03
 -2.765932560E+00 0.000000000E+00 0.000000000E+00 2.018468687E-03
 -2.715646982E+00 0.000000000E+00 0.000000000E+00 2.051251242E-03
 -2.666275501E+00 0.000000000E+00 0.000000000E+00 2.081053564E-03
 -2.617801189E+00 0.000000000E+00 0.000000000E+00 2.116816351E-03
 -2.570208073E+00 0.000000000E+00 0.000000000E+00 2.149598906E-03
 -2.523479939E+00 0.000000000E+00 0.000000000E+00 2.185361693E-03
 -2.477601051E+00 0.000000000E+00 0.000000000E+00 2.221124480E-03
 -2.432555914E+00 0.000000000E+00 0.000000000E+00 2.256887266E-03
 -2.388329744E+00 0.000000000E+00 0.000000000E+00 2.295630286E-03
 -2.344907045E+00 0.000000000E+00 0.000000000E+00 2.334373305E-03
 -2.302273989E+00 0.000000000E+00 0.000000000E+00 2.373116324E-03
 -2.260415554E+00 0.000000000E+00 0.000000000E+00 2.414839575E-03
 -2.219317675E+00 0.000000000E+00 0.000000000E+00 2.456562826E-03
 -2.178966999E+00 0.000000000E+00 0.000000000E+00 2.498286078E-03
 -2.139349699E+00 0.000000000E+00 0.000000000E+00 2.542989561E-03
 -2.100452185E+00 0.000000000E+00 0.000000000E+00 2.587693045E-03
 -2.062261820E+00 0.000000000E+00 0.000000000E+00 2.632396528E-03
 -2.024765491E+00 0.000000000E+00 0.000000000E+00 2.680080244E-03
 -1.987950563E+00 0.000000000E+00 0.000000000E+00 2.727763960E-03
 -1.951804757E+00 0.000000000E+00 0.000000000E+00 2.775447676E-03
 -1.916315794E+00 0.000000000E+00 0.000000000E+00 2.823131392E-03
 -1.881471753E+00 0.000000000E+00 0.000000000E+00 2.876775572E-03
 -1.847261071E+00 0.000000000E+00 0.000000000E+00 2.924459288E-03
 -1.813671947E+00 0.000000000E+00 0.000000000E+00 2.981083700E-03
 -1.780693293E+00 0.000000000E+00 0.000000000E+00 3.031747648E-03
 -1.748314023E+00 0.000000000E+00 0.000000000E+00 3.088372061E-03
 -1.716523051E+00 0.000000000E+00 0.000000000E+00 3.142016241E-03
 -1.685309887E+00 0.000000000E+00 0.000000000E+00 3.198640654E-03
 -1.654663801E+00 0.000000000E+00 0.000000000E+00 3.258245299E-03
 -1.624574780E+00 0.000000000E+00 0.000000000E+00 3.314869711E-03
 -1.595032454E+00 0.000000000E+00 0.000000000E+00 3.377454588E-03
 -1.566026926E+00 0.000000000E+00 0.000000000E+00 3.437059233E-03
 -1.537548423E+00 0.000000000E+00 0.000000000E+00 3.499644110E-03
 -1.509587407E+00 0.000000000E+00 0.000000000E+00 3.565209219E-03
 -1.482134581E+00 0.000000000E+00 0.000000000E+00 3.627794096E-03
 -1.455180407E+00 0.000000000E+00 0.000000000E+00 3.693359205E-03
 -1.428716063E+00 0.000000000E+00 0.000000000E+00 3.761904547E-03
 -1.402732611E+00 0.000000000E+00 0.000000000E+00 3.827469656E-03
 -1.377221227E+00 0.000000000E+00 0.000000000E+00 3.896014998E-03
 -1.352173448E+00 0.000000000E+00 0.000000000E+00 3.967540804E-03
 -1.327580571E+00 0.000000000E+00 0.000000000E+00 4.039066378E-03
 -1.303434610E+00 0.000000000E+00 0.000000000E+00 4.110591952E-03
 -1.279727340E+00 0.000000000E+00 0.000000000E+00 4.182117525E-03
 -1.256450772E+00 0.000000000E+00 0.000000000E+00 4.259603564E-03
 -1.233597040E+00 0.000000000E+00 0.000000000E+00 4.334109370E-03
 -1.211158514E+00 0.000000000E+00 0.000000000E+00 4.411595408E-03
 -1.189127684E+00 0.000000000E+00 0.000000000E+00 4.489081446E-03
 -1.167496920E+00 0.000000000E+00 0.000000000E+00 4.569547717E-03
 -1.146259189E+00 0.000000000E+00 0.000000000E+00 4.647033755E-03
 -1.125407219E+00 0.000000000E+00 0.000000000E+00 4.730480257E-03
 -1.104933977E+00 0.000000000E+00 0.000000000E+00 4.810946528E-03
 -1.084832668E+00 0.000000000E+00 0.000000000E+00 4.894393031E-03
 -1.065096498E+00 0.000000000E+00 0.000000000E+00 4.980819765E-03
 -1.045718670E+00 0.000000000E+00 0.000000000E+00 5.064266268E-03
 -1.026692867E+00 0.000000000E+00 0.000000000E+00 5.153673235E-03
 -1.008012652E+00 0.000000000E+00 0.000000000E+00 5.240099970E-03
 -9.896716475E-01 0.000000000E+00 0.000000000E+00 5.328016821E-03
 -9.896716475E-01 0.000000000E+00 0.000000000E+00 5.328016821E-03
 -9.716637135E-01 0.000000000E+00 0.000000000E+00 5.415933672E-03
 -9.539828300E-01 0.000000000E+00 0.000000000E+00 5.511301104E-03
 -9.366229773E-01 0.000000000E+00 0.000000000E+00 5.600708071E-03
 -9.195784330E-01 0.000000000E+00 0.000000000E+00 5.696075503E-03
 -9.028432965E-01 0.000000000E+00 0.000000000E+00 5.788462702E-03
 -8.864120841E-01 0.000000000E+00 0.000000000E+00 5.883830134E-03
 -8.702791333E-01 0.000000000E+00 0.000000000E+00 5.982177798E-03
 -8.544391394E-01 0.000000000E+00 0.000000000E+00 6.077545229E-03
 -8.388866782E-01 0.000000000E+00 0.000000000E+00 6.175892893E-03
 -8.236165643E-01 0.000000000E+00 0.000000000E+00 6.277220789E-03
 -8.086236715E-01 0.000000000E+00 0.000000000E+00 6.378548685E-03
 -7.939029336E-01 0.000000000E+00 0.000000000E+00 6.476896349E-03
 -7.794493437E-01 0.000000000E+00 0.000000000E+00 6.581204478E-03
 -7.652581334E-01 0.000000000E+00 0.000000000E+00 6.682532374E-03
 -7.513244748E-01 0.000000000E+00 0.000000000E+00 6.786840502E-03
 -7.376436591E-01 0.000000000E+00 0.000000000E+00 6.891148631E-03
 -7.242110968E-01 0.000000000E+00 0.000000000E+00 6.998436991E-03
 -7.110222578E-01 0.000000000E+00 0.000000000E+00 7.105725352E-03
 -6.980727911E-01 0.000000000E+00 0.000000000E+00 7.213013712E-03
 -6.853582263E-01 0.000000000E+00 0.000000000E+00 7.323282305E-03
 -6.728742719E-01 0.000000000E+00 0.000000000E+00 7.433550898E-03
 -6.606168747E-01 0.000000000E+00 0.000000000E+00 7.543819491E-03
 -6.485817432E-01 0.000000000E+00 0.000000000E+00 7.657068316E-03
 -6.367649436E-01 0.000000000E+00 0.000000000E+00 7.770317141E-03
 -6.251624227E-01 0.000000000E+00 0.000000000E+00 7.880585268E-03
 -6.137703061E-01 0.000000000E+00 0.000000000E+00 7.996814325E-03
 -6.025847793E-01 0.000000000E+00 0.000000000E+00 8.110063151E-03
 -5.916020870E-01 0.000000000E+00 0.000000000E+00 8.226292208E-03
 -5.808184743E-01 0.000000000E+00 0.000000000E+00 8.342521265E-03
 -5.702303052E-01 0.000000000E+00 0.000000000E+00 8.461730555E-03
 -5.598340631E-01 0.000000000E+00 0.000000000E+00 8.577959612E-03
 -5.496262908E-01 0.000000000E+00 0.000000000E+00 8.700149134E-03
 -5.396034718E-01 0.000000000E+00 0.000000000E+00 8.819358423E-03
 -5.297622681E-01 0.000000000E+00 0.000000000E+00 8.938567713E-03
 -5.200993419E-01 0.000000000E+00 0.000000000E+00 9.060757235E-03
 -5.106114745E-01 0.000000000E+00 0.000000000E+00 9.182946756E-03
 -5.012954473E-01 0.000000000E+00 0.000000000E+00 9.305136278E-03
 -4.921481311E-01 0.000000000E+00 0.000000000E+00 9.430306032E-03
 -4.831664860E-01 0.000000000E+00 0.000000000E+00 9.552495554E-03
 -4.743474126E-01 0.000000000E+00 0.000000000E+00 9.677665308E-03
 -4.656880200E-01 0.000000000E+00 0.000000000E+00 9.802835062E-03
 -4.571853280E-01 0.000000000E+00 0.000000000E+00 9.928004816E-03
 -4.488365352E-01 0.000000000E+00 0.000000000E+00 1.005317457E-02
 -4.406387806E-01 0.000000000E+00 0.000000000E+00 1.017834432E-02
 -4.325893521E-01 0.000000000E+00 0.000000000E+00 1.030947454E-02
 -4.246855080E-01 0.000000000E+00 0.000000000E+00 1.043464430E-02
 -4.169245660E-01 0.000000000E+00 0.000000000E+00 1.056279428E-02
 -4.093039930E-01 0.000000000E+00 0.000000000E+00 1.069392450E-02
 -4.018211365E-01 0.000000000E+00 0.000000000E+00 1.082207449E-02
 -3.944735229E-01 0.000000000E+00 0.000000000E+00 1.095320471E-02
 -3.872586787E-01 0.000000000E+00 0.000000000E+00 1.108433492E-02
 -3.801741898E-01 0.000000000E+00 0.000000000E+00 1.121546514E-02
 -3.732176125E-01 0.000000000E+00 0.000000000E+00 1.134361513E-02
 -3.663866818E-01 0.000000000E+00 0.000000000E+00 1.147772558E-02
 -3.596790433E-01 0.000000000E+00 0.000000000E+00 1.161183603E-02
 -3.530924618E-01 0.000000000E+00 0.000000000E+00 1.173998602E-02
 -3.466247022E-01 0.000000000E+00 0.000000000E+00 1.187409647E-02
 -3.402736187E-01 0.000000000E+00 0.000000000E+00 1.200820692E-02
 -3.340370655E-01 0.000000000E+00 0.000000000E+00 1.213933714E-02
 -3.279129267E-01 0.000000000E+00 0.000000000E+00 1.227344759E-02
 -3.218991458E-01 0.000000000E+00 0.000000000E+00 1.240755804E-02
 -3.159936965E-01 0.000000000E+00 0.000000000E+00 1.254464872E-02
 -3.101946115E-01 0.000000000E+00 0.000000000E+00 1.267875917E-02
 -3.044999242E-01 0.000000000E+00 0.000000000E+00 1.281286962E-02
 -2.989077270E-01 0.000000000E+00 0.000000000E+00 1.294698007E-02
 -2.934161127E-01 0.000000000E+00 0.000000000E+00 1.308109052E-02
 -2.880232632E-01 0.000000000E+00 0.000000000E+00 1.321818121E-02
 -2.827273309E-01 0.000000000E+00 0.000000000E+00 1.335229166E-02
 -2.775265872E-01 0.000000000E+00 0.000000000E+00 1.348938234E-02
 -2.724192142E-01 0.000000000E+00 0.000000000E+00 1.362349279E-02
 -2.674035430E-01 0.000000000E+00 0.000000000E+00 1.376058348E-02
 -2.624778748E-01 0.000000000E+00 0.000000000E+00 1.389469393E-02
 -2.576405406E-01 0.000000000E+00 0.000000000E+00 1.403178461E-02
 -2.528899014E-01 0.000000000E+00 0.000000000E+00 1.416887529E-02
 -2.482243925E-01 0.000000000E+00 0.000000000E+00 1.430298574E-02
 -2.436424345E-01 0.000000000E+00 0.000000000E+00 1.444007643E-02
 -2.391424626E-01 0.000000000E+00 0.000000000E+00 1.457716711E-02
 -2.347229719E-01 0.000000000E+00 0.000000000E+00 1.471127756E-02
 -2.303824872E-01 0.000000000E+00 0.000000000E+00 1.484836824E-02
 -2.261195332E-01 0.000000000E+00 0.000000000E+00 1.498545893E-02
 -2.219326943E-01 0.000000000E+00 0.000000000E+00 1.511956938E-02
 -2.178205401E-01 0.000000000E+00 0.000000000E+00 1.525666006E-02
 -2.137816995E-01 0.000000000E+00 0.000000000E+00 1.539077051E-02
 -2.098148018E-01 0.000000000E+00 0.000000000E+00 1.552488096E-02
 -2.059185207E-01 0.000000000E+00 0.000000000E+00 1.566197164E-02
 -2.020915598E-01 0.000000000E+00 0.000000000E+00 1.579608209E-02
 -1.983325928E-01 0.000000000E+00 0.000000000E+00 1.593317278E-02
 -1.946403831E-01 0.000000000E+00 0.000000000E+00 1.606877334E-02
 -1.946403831E-01 0.000000000E+00 0.000000000E+00 1.606877334E-02
 -1.910136938E-01 0.000000000E+00 0.000000000E+00 1.620139368E-02
 -1.874512732E-01 0.000000000E+00 0.000000000E+00 1.633848436E-02
 -1.839519590E-01 0.000000000E+00 0.000000000E+00 1.647259481E-02
 -1.805145442E-01 0.000000000E+00 0.000000000E+00 1.660670526E-02
 -1.771378815E-01 0.000000000E+00 0.000000000E+00 1.673783548E-02
 -1.738208532E-01 0.000000000E+00 0.000000000E+00 1.687492616E-02
 -1.705623120E-01 0.000000000E+00 0.000000000E+00 1.700903662E-02
 -1.673611701E-01 0.000000000E+00 0.000000000E+00 1.714314707E-02
 -1.642163694E-01 0.000000000E+00 0.000000000E+00 1.727427728E-02
 -1.611268222E-01 0.000000000E+00 0.000000000E+00 1.740540750E-02
 -1.580915153E-01 0.000000000E+00 0.000000000E+00 1.753951795E-02
 -1.551094055E-01 0.000000000E+00 0.000000000E+00 1.767362840E-02
 -1.521795094E-01 0.000000000E+00 0.000000000E+00 1.780475862E-02
 -1.493008286E-01 0.000000000E+00 0.000000000E+00 1.793588884E-02
 -1.464723945E-01 0.000000000E+00 0.000000000E+00 1.806999929E-02
 -1.436932534E-01 0.000000000E+00 0.000000000E+00 1.819814928E-02
 -1.409624815E-01 0.000000000E+00 0.000000000E+00 1.833225973E-02
 -1.382791400E-01 0.000000000E+00 0.000000000E+00 1.846040972E-02
 -1.356423497E-01 0.000000000E+00 0.000000000E+00 1.859153993E-02
 -1.330512166E-01 0.000000000E+00 0.000000000E+00 1.872267015E-02
 -1.305048466E-01 0.000000000E+00 0.000000000E+00 1.885380037E-02
 -1.280024052E-01 0.000000000E+00 0.000000000E+00 1.898195036E-02
 -1.255430430E-01 0.000000000E+00 0.000000000E+00 1.911308058E-02
 -1.231259406E-01 0.000000000E+00 0.000000000E+00 1.923825033E-02
 -1.207502708E-01 0.000000000E+00 0.000000000E+00 1.936640032E-02
 -1.184152439E-01 0.000000000E+00 0.000000000E+00 1.949753053E-02
 -1.161200702E-01 0.000000000E+00 0.000000000E+00 1.962568052E-02
 -1.138639748E-01 0.000000000E+00 0.000000000E+00 1.975085028E-02
 -1.116462052E-01 0.000000000E+00 0.000000000E+00 1.988198049E-02
 -1.094660088E-01 0.000000000E+00 0.000000000E+00 2.000715025E-02
 -1.073226556E-01 0.000000000E+00 0.000000000E+00 2.013232000E-02
 -1.052154228E-01 0.000000000E+00 0.000000000E+00 2.026046999E-02
 -1.031436026E-01 0.000000000E+00 0.000000000E+00 2.038861997E-02
 -1.011064947E-01 0.000000000E+00 0.000000000E+00 2.051378973E-02
 -9.910341352E-02 0.000000000E+00 0.000000000E+00 2.063895948E-02
 -9.713368863E-02 0.000000000E+00 0.000000000E+00 2.076412924E-02
 -9.519665688E-02 0.000000000E+00 0.000000000E+00 2.088929899E-02
 -9.329166263E-02 0.000000000E+00 0.000000000E+00 2.101446874E-02
 -9.141806513E-02 0.000000000E+00 0.000000000E+00 2.113963850E-02
 -8.957523853E-02 0.000000000E+00 0.000000000E+00 2.126480825E-02
 -8.776255697E-02 0.000000000E+00 0.000000000E+00 2.138699777E-02
 -8.597940952E-02 0.000000000E+00 0.000000000E+00 2.151216753E-02
 -8.422520012E-02 0.000000000E+00 0.000000000E+00 2.163733728E-02
 -8.249934018E-02 0.000000000E+00 0.000000000E+00 2.176250704E-02
 -8.080124855E-02 0.000000000E+00 0.000000000E+00 2.188469656E-02
 -7.913035154E-02 0.000000000E+00 0.000000000E+00 2.200986631E-02
 -7.748608291E-02 0.000000000E+00 0.000000000E+00 2.213205583E-02
 -7.586789131E-02 0.000000000E+00 0.000000000E+00 2.225722559E-02
 -7.427524030E-02 0.000000000E+00 0.000000000E+00 2.237941511E-02
 -7.270757854E-02 0.000000000E+00 0.000000000E+00 2.250160463E-02
 -7.116439939E-02 0.000000000E+00 0.000000000E+00 2.262677439E-02
 -6.964515895E-02 0.000000000E+00 0.000000000E+00 2.274896391E-02
 -6.814936548E-02 0.000000000E+00 0.000000000E+00 2.287413366E-02
 -6.667650491E-02 0.000000000E+00 0.000000000E+00 2.299930342E-02
 -6.522608548E-02 0.000000000E+00 0.000000000E+00 2.312149294E-02
 -6.379762292E-02 0.000000000E+00 0.000000000E+00 2.324666269E-02
 -6.239062548E-02 0.000000000E+00 0.000000000E+00 2.336885221E-02
 -6.100463122E-02 0.000000000E+00 0.000000000E+00 2.349402197E-02
 -5.963916704E-02 0.000000000E+00 0.000000000E+00 2.361919172E-02
 -5.829377472E-02 0.000000000E+00 0.000000000E+00 2.374436148E-02
 -5.696799979E-02 0.000000000E+00 0.000000000E+00 2.387251146E-02
 -5.566140264E-02 0.000000000E+00 0.000000000E+00 2.399768122E-02
 -5.437353626E-02 0.000000000E+00 0.000000000E+00 2.412285097E-02
 -5.310396850E-02 0.000000000E+00 0.000000000E+00 2.424802072E-02
 -5.185227469E-02 0.000000000E+00 0.000000000E+00 2.437617071E-02
 -5.061803013E-02 0.000000000E+00 0.000000000E+00 2.450432070E-02
 -4.940082505E-02 0.000000000E+00 0.000000000E+00 2.463247068E-02
 -4.820024595E-02 0.000000000E+00 0.000000000E+00 2.476360090E-02
 -4.701588675E-02 0.000000000E+00 0.000000000E+00 2.489175089E-02
 -4.584735259E-02 0.000000000E+00 0.000000000E+00 2.502288111E-02
 -4.469424859E-02 0.000000000E+00 0.000000000E+00 2.515401132E-02
 -4.355618730E-02 0.000000000E+00 0.000000000E+00 2.528812177E-02
 -4.243278503E-02 0.000000000E+00 0.000000000E+00 2.542223223E-02
 -4.132366180E-02 0.000000000E+00 0.000000000E+00 2.555932291E-02
 -4.022844881E-02 0.000000000E+00 0.000000000E+00 2.569343336E-02
 -3.914677724E-02 0.000000000E+00 0.000000000E+00 2.583350427E-02
 -3.807827830E-02 0.000000000E+00 0.000000000E+00 2.597059496E-02
 -3.702259436E-02 0.000000000E+00 0.000000000E+00 2.611364610E-02
 -3.597937152E-02 0.000000000E+00 0.000000000E+00 2.625669725E-02
 -3.494825587E-02 0.000000000E+00 0.000000000E+00 2.640272863E-02
 -3.392890468E-02 0.000000000E+00 0.000000000E+00 2.654876001E-02
 -3.292097151E-02 0.000000000E+00 0.000000000E+00 2.669777162E-02
 -3.192412108E-02 0.000000000E+00 0.000000000E+00 2.684976347E-02
 -3.093801253E-02 0.000000000E+00 0.000000000E+00 2.700473554E-02
 -2.996231616E-02 0.000000000E+00 0.000000000E+00 2.716268785E-02
 -2.899670415E-02 0.000000000E+00 0.000000000E+00 2.732362039E-02
 -2.804085240E-02 0.000000000E+00 0.000000000E+00 2.748753317E-02
 -2.709443681E-02 0.000000000E+00 0.000000000E+00 2.765591629E-02
 -2.709443681E-02 0.000000000E+00 0.000000000E+00 2.765591629E-02
 -2.615714073E-02 0.000000000E+00 0.000000000E+00 2.782727964E-02
 -2.522864752E-02 0.000000000E+00 0.000000000E+00 2.800609358E-02
 -2.430864610E-02 0.000000000E+00 0.000000000E+00 2.818788774E-02
 -2.339682542E-02 0.000000000E+00 0.000000000E+00 2.837564237E-02
 -2.249288000E-02 0.000000000E+00 0.000000000E+00 2.856935747E-02
 -2.159650251E-02 0.000000000E+00 0.000000000E+00 2.876903303E-02
 -2.070739679E-02 0.000000000E+00 0.000000000E+00 2.897466905E-02
 -1.982525736E-02 0.000000000E+00 0.000000000E+00 2.919222601E-02
 -1.894979179E-02 0.000000000E+00 0.000000000E+00 2.941574343E-02
 -1.808070391E-02 0.000000000E+00 0.000000000E+00 2.965118177E-02
 -1.721770130E-02 0.000000000E+00 0.000000000E+00 2.989854105E-02
 -1.636049338E-02 0.000000000E+00 0.000000000E+00 3.015484102E-02
 -1.550879143E-02 0.000000000E+00 0.000000000E+00 3.042902239E-02
 -1.466230955E-02 0.000000000E+00 0.000000000E+00 3.071810491E-02
 -1.382076181E-02 0.000000000E+00 0.000000000E+00 3.102804907E-02
 -1.298386604E-02 0.000000000E+00 0.000000000E+00 3.135885671E-02
 -1.215134002E-02 0.000000000E+00 0.000000000E+00 3.171648458E-02
 -1.132290438E-02 0.000000000E+00 0.000000000E+00 3.210391477E-02
 -1.049827877E-02 0.000000000E+00 0.000000000E+00 3.252710775E-02
 -9.677186608E-03 0.000000000E+00 0.000000000E+00 3.299202397E-02
 -8.859351277E-03 0.000000000E+00 0.000000000E+00 3.351356462E-02
 -8.044498041E-03 0.000000000E+00 0.000000000E+00 3.410067037E-02
 -7.232351694E-03 0.000000000E+00 0.000000000E+00 3.476824239E-02
 -6.422639824E-03 0.000000000E+00 0.000000000E+00 3.556396440E-02
 -5.615089089E-03 0.000000000E+00 0.000000000E+00 3.653552011E-02
 -4.809428938E-03 0.000000000E+00 0.000000000E+00 3.769483045E-02
 -4.005386960E-03 0.000000000E+00 0.000000000E+00 3.895248845E-02
 -3.202693071E-03 0.000000000E+00 0.000000000E+00 4.047538713E-02
 -2.401077189E-03 0.000000000E+00 0.000000000E+00 4.372384027E-02
 -1.600269228E-03 0.000000000E+00 0.000000000E+00 5.239929631E-02
 -7.999999798E-04 0.000000000E+00 0.000000000E+00 6.607259810E-02
 0.000000000E+00 0.000000000E+00 0.000000000E+00 5.927767232E-02
 7.999999798E-04 0.000000000E+00 0.000000000E+00 3.064359911E-02
 1.606264967E-03 0.000000000E+00 0.000000000E+00 1.939322241E-02
 2.418837277E-03 0.000000000E+00 0.000000000E+00 2.186383493E-02
 3.237759229E-03 0.000000000E+00 0.000000000E+00 2.167310007E-02
 4.063073546E-03 0.000000000E+00 0.000000000E+00 2.246882208E-02
 4.894822836E-03 0.000000000E+00 0.000000000E+00 2.299334295E-02
 5.733050406E-03 0.000000000E+00 0.000000000E+00 2.350594290E-02
 6.577799562E-03 0.000000000E+00 0.000000000E+00 2.391423471E-02
 7.429112680E-03 0.000000000E+00 0.000000000E+00 2.427186258E-02
 8.287033997E-03 0.000000000E+00 0.000000000E+00 2.457584627E-02
 9.151606821E-03 0.000000000E+00 0.000000000E+00 2.484704740E-02
 1.002287492E-02 0.000000000E+00 0.000000000E+00 2.509142645E-02
 1.090088207E-02 0.000000000E+00 0.000000000E+00 2.530898340E-02
 1.178567298E-02 0.000000000E+00 0.000000000E+00 2.550567873E-02
 1.267729141E-02 0.000000000E+00 0.000000000E+00 2.568151243E-02
 1.357578207E-02 0.000000000E+00 0.000000000E+00 2.584542520E-02
 1.448118873E-02 0.000000000E+00 0.000000000E+00 2.598847635E-02
 1.539355703E-02 0.000000000E+00 0.000000000E+00 2.612556703E-02
 1.631293073E-02 0.000000000E+00 0.000000000E+00 2.624775656E-02
 1.723935641E-02 0.000000000E+00 0.000000000E+00 2.635802515E-02
 1.817287691E-02 0.000000000E+00 0.000000000E+00 2.646531351E-02
 1.911354065E-02 0.000000000E+00 0.000000000E+00 2.656068094E-02
 2.006139047E-02 0.000000000E+00 0.000000000E+00 2.665604837E-02
 2.101647109E-02 0.000000000E+00 0.000000000E+00 2.673949488E-02
 2.197883092E-02 0.000000000E+00 0.000000000E+00 2.682294138E-02
 2.294851467E-02 0.000000000E+00 0.000000000E+00 2.690042742E-02
 2.392556891E-02 0.000000000E+00 0.000000000E+00 2.697493322E-02
 2.491003834E-02 0.000000000E+00 0.000000000E+00 2.704645880E-02
 2.590196952E-02 0.000000000E+00 0.000000000E+00 2.711500414E-02
 2.690140903E-02 0.000000000E+00 0.000000000E+00 2.718354948E-02
 2.790840343E-02 0.000000000E+00 0.000000000E+00 2.724911459E-02
 2.892299928E-02 0.000000000E+00 0.000000000E+00 2.731467970E-02
 2.994524129E-02 0.000000000E+00 0.000000000E+00 2.737726457E-02
 3.097517975E-02 0.000000000E+00 0.000000000E+00 2.744282968E-02
 3.201285750E-02 0.000000000E+00 0.000000000E+00 2.750541456E-02
 3.305832669E-02 0.000000000E+00 0.000000000E+00 2.756799944E-02
 3.411163017E-02 0.000000000E+00 0.000000000E+00 2.763058431E-02
 3.517281637E-02 0.000000000E+00 0.000000000E+00 2.769316919E-02
 3.624192998E-02 0.000000000E+00 0.000000000E+00 2.775575407E-02
 3.731902316E-02 0.000000000E+00 0.000000000E+00 2.782131918E-02
 3.840414062E-02 0.000000000E+00 0.000000000E+00 2.788390405E-02
 3.949733078E-02 0.000000000E+00 0.000000000E+00 2.794946916E-02
 4.059864208E-02 0.000000000E+00 0.000000000E+00 2.801503427E-02
 4.170811921E-02 0.000000000E+00 0.000000000E+00 2.808059938E-02
 4.282581061E-02 0.000000000E+00 0.000000000E+00 2.814616449E-02
 4.395176470E-02 0.000000000E+00 0.000000000E+00 2.821769007E-02
 4.508602992E-02 0.000000000E+00 0.000000000E+00 2.828325517E-02
 4.622865468E-02 0.000000000E+00 0.000000000E+00 2.835478075E-02
 4.737968370E-02 0.000000000E+00 0.000000000E+00 2.842630632E-02
 4.853916913E-02 0.000000000E+00 0.000000000E+00 2.849783190E-02
 4.970715567E-02 0.000000000E+00 0.000000000E+00 2.857233770E-02
 5.088369548E-02 0.000000000E+00 0.000000000E+00 2.864684351E-02
 5.206883326E-02 0.000000000E+00 0.000000000E+00 2.872134931E-02
 5.326262116E-02 0.000000000E+00 0.000000000E+00 2.880181558E-02
 5.446510017E-02 0.000000000E+00 0.000000000E+00 2.888228185E-02
 5.567632616E-02 0.000000000E+00 0.000000000E+00 2.896870859E-02
 5.567632616E-02 0.000000000E+00 0.000000000E+00 2.896870859E-02
 5.689634383E-02 0.000000000E+00 0.000000000E+00 2.904619463E-02
 5.812519789E-02 0.000000000E+00 0.000000000E+00 2.912368067E-02
 5.936294422E-02 0.000000000E+00 0.000000000E+00 2.921010740E-02
 6.060962752E-02 0.000000000E+00 0.000000000E+00 2.929653414E-02
 6.186529621E-02 0.000000000E+00 0.000000000E+00 2.938594110E-02
 6.312999874E-02 0.000000000E+00 0.000000000E+00 2.947534807E-02
 6.440377980E-02 0.000000000E+00 0.000000000E+00 2.956773527E-02
 6.568669528E-02 0.000000000E+00 0.000000000E+00 2.966012247E-02