VARIABLES = "X","Y","Z","u","v","w","cp"
ZONE T="CFL3D, grid 1"
 1.207912207E+00 -1.250000000E-01 0.000000000E+00 0.000000000E+00 0.000000000E+00 0.000000000E+00 6.568814814E-02
 1.207912207E+00 -1.250000000E-01 4.999999987E-07 3.685997799E-04 -1.470222742E-05 -1.731577243E-10 6.568814814E-02
 1.207912207E+00 -1.250000000E-01 1.000203383E-06 7.373214466E-04 -2.941786988E-05 -5.856406471E-10 6.568814814E-02
 1.207912207E+00 -1.250000000E-01 1.500813596E-06 1.106314827E-03 -4.415293006E-05 -1.261949434E-09 6.568814814E-02
 1.207912207E+00 -1.250000000E-01 2.002034307E-06 1.475730212E-03 -5.891341789E-05 -2.211683281E-09 6.568814814E-02
 1.207912207E+00 -1.250000000E-01 2.504069471E-06 1.845717547E-03 -7.370537787E-05 -3.435203455E-09 6.568814814E-02
 1.207912207E+00 -1.250000000E-01 3.007123041E-06 2.216427121E-03 -8.853485633E-05 -4.935241549E-09 6.568814814E-02
 1.207912207E+00 -1.250000000E-01 3.511400109E-06 2.588009229E-03 -1.034079323E-04 -6.714378387E-09 6.568814814E-02
 1.207912207E+00 -1.250000000E-01 4.017105312E-06 2.960615326E-03 -1.183307104E-04 -8.775804972E-09 6.568814814E-02
 1.207912207E+00 -1.250000000E-01 4.524444648E-06 3.334396053E-03 -1.333093242E-04 -1.112313885E-08 6.568814814E-02
 1.207912207E+00 -1.250000000E-01 5.033624348E-06 3.709503217E-03 -1.483499218E-04 -1.376046832E-08 6.568814814E-02
 1.207912207E+00 -1.250000000E-01 5.544851319E-06 4.086088389E-03 -1.634587243E-04 -1.669236838E-08 6.568814814E-02
 1.207912207E+00 -1.250000000E-01 6.058334293E-06 4.464305006E-03 -1.786419307E-04 -1.992390075E-08 6.568814814E-02
 1.207912207E+00 -1.250000000E-01 6.574281088E-06 4.844305106E-03 -1.939058420E-04 -2.346060413E-08 6.568814814E-02
 1.207912207E+00 -1.250000000E-01 7.092902251E-06 5.226242356E-03 -2.092567302E-04 -2.730853765E-08 6.568814814E-02
 1.207912207E+00 -1.250000000E-01 7.614408787E-06 5.610271823E-03 -2.247009397E-04 -3.147426852E-08 6.568814814E-02
 1.207912207E+00 -1.250000000E-01 8.139012607E-06 5.996548571E-03 -2.402448881E-04 -3.596489151E-08 6.568814814E-02
 1.207912207E+00 -1.250000000E-01 8.666926988E-06 6.385227665E-03 -2.558950218E-04 -4.078803428E-08 6.568814814E-02
 1.207912207E+00 -1.250000000E-01 9.198367479E-06 6.776466500E-03 -2.716577728E-04 -4.595188230E-08 6.568814814E-02
 1.207912207E+00 -1.250000000E-01 9.733548723E-06 7.170420606E-03 -2.875396749E-04 -5.146516813E-08 6.568814814E-02
 1.207912207E+00 -1.250000000E-01 1.027268991E-05 7.567250635E-03 -3.035473637E-04 -5.733722830E-08 6.568814814E-02
 1.207912207E+00 -1.250000000E-01 1.081600931E-05 7.967115380E-03 -3.196874750E-04 -6.357798554E-08 6.568814814E-02
 1.207912207E+00 -1.250000000E-01 1.136372885E-05 8.370174095E-03 -3.359667026E-04 -7.019796300E-08 6.568814814E-02
 1.207912207E+00 -1.250000000E-01 1.191607043E-05 8.776588365E-03 -3.523917403E-04 -7.720832684E-08 6.568814814E-02
 1.207912207E+00 -1.250000000E-01 1.247325872E-05 9.186519310E-03 -3.689694568E-04 -8.462085788E-08 6.568814814E-02
 1.207912207E+00 -1.250000000E-01 1.303552108E-05 9.600133635E-03 -3.857067495E-04 -9.244807586E-08 6.568814814E-02
 1.207912207E+00 -1.250000000E-01 1.360308670E-05 1.001759060E-02 -4.026104871E-04 -1.007031116E-07 6.568814814E-02
 1.207912207E+00 -1.250000000E-01 1.417618478E-05 1.043906063E-02 -4.196877708E-04 -1.093998563E-07 6.568814814E-02
 1.207912207E+00 -1.250000000E-01 1.475504905E-05 1.086470857E-02 -4.369455564E-04 -1.185528902E-07 6.568814814E-02
 1.207912207E+00 -1.250000000E-01 1.533991599E-05 1.129470114E-02 -4.543911491E-04 -1.281776179E-07 6.568814814E-02
 1.207912207E+00 -1.250000000E-01 1.593102206E-05 1.172920968E-02 -4.720315628E-04 -1.382901331E-07 6.568814814E-02
 1.207912207E+00 -1.250000000E-01 1.652860919E-05 1.216840092E-02 -4.898741608E-04 -1.489074037E-07 6.568814814E-02
 1.207912207E+00 -1.250000000E-01 1.713291931E-05 1.261245087E-02 -5.079263356E-04 -1.600472359E-07 6.568814814E-02
 1.207912207E+00 -1.250000000E-01 1.774419979E-05 1.306152809E-02 -5.261953920E-04 -1.717282601E-07 6.568814814E-02
 1.207912207E+00 -1.250000000E-01 1.836269621E-05 1.351580862E-02 -5.446890136E-04 -1.839700303E-07 6.568814814E-02
 1.207912207E+00 -1.250000000E-01 1.898866321E-05 1.397546567E-02 -5.634144763E-04 -1.967929677E-07 6.568814814E-02
 1.207912207E+00 -1.250000000E-01 1.962235365E-05 1.444067713E-02 -5.823796964E-04 -2.102185732E-07 6.568814814E-02
 1.207912207E+00 -1.250000000E-01 2.026402581E-05 1.491161622E-02 -6.015921244E-04 -2.242691579E-07 6.568814814E-02
 1.207912207E+00 -1.250000000E-01 2.091394163E-05 1.538846642E-02 -6.210596184E-04 -2.389682265E-07 6.568814814E-02
 1.207912207E+00 -1.250000000E-01 2.157236304E-05 1.587140374E-02 -6.407900364E-04 -2.543402786E-07 6.568814814E-02
 1.207912207E+00 -1.250000000E-01 2.223956108E-05 1.636060514E-02 -6.607912364E-04 -2.704108226E-07 6.568814814E-02
 1.207912207E+00 -1.250000000E-01 2.291580495E-05 1.685625501E-02 -6.810710183E-04 -2.872066318E-07 6.568814814E-02
 1.207912207E+00 -1.250000000E-01 2.360136932E-05 1.735853404E-02 -7.016375894E-04 -3.047555879E-07 6.568814814E-02
 1.207912207E+00 -1.250000000E-01 2.429653614E-05 1.786762290E-02 -7.224988658E-04 -3.230868231E-07 6.568814814E-02
 1.207912207E+00 -1.250000000E-01 2.500158553E-05 1.838370413E-02 -7.436629967E-04 -3.422306634E-07 6.568814814E-02
 1.207912207E+00 -1.250000000E-01 2.571680307E-05 1.890696026E-02 -7.651380729E-04 -3.622187990E-07 6.568814814E-02
 1.207912207E+00 -1.250000000E-01 2.644248343E-05 1.943757012E-02 -7.869321271E-04 -3.830841422E-07 6.568814814E-02
 1.207912207E+00 -1.250000000E-01 2.717891948E-05 1.997571811E-02 -8.090535412E-04 -4.048611970E-07 6.568814814E-02
 1.207912207E+00 -1.250000000E-01 2.792640953E-05 2.052158490E-02 -8.315104060E-04 -4.275856611E-07 6.568814814E-02
 1.207912207E+00 -1.250000000E-01 2.868526099E-05 2.107535303E-02 -8.543108124E-04 -4.512948806E-07 6.568814814E-02
 1.207912207E+00 -1.250000000E-01 2.945577944E-05 2.163719945E-02 -8.774629678E-04 -4.760275942E-07 6.568814814E-02
 1.207912207E+00 -1.250000000E-01 3.023828140E-05 2.220729925E-02 -9.009750211E-04 -5.018242177E-07 6.568814814E-02
 1.207912207E+00 -1.250000000E-01 3.103308336E-05 2.278583497E-02 -9.248551214E-04 -5.287267300E-07 6.568814814E-02
 1.207912207E+00 -1.250000000E-01 3.184050729E-05 2.337297425E-02 -9.491111850E-04 -5.567786729E-07 6.568814814E-02
 1.207912207E+00 -1.250000000E-01 3.266088243E-05 2.396888658E-02 -9.737510700E-04 -5.860254078E-07 6.568814814E-02
 1.207912207E+00 -1.250000000E-01 3.349454346E-05 2.457374521E-02 -9.987828089E-04 -6.165141144E-07 6.568814814E-02
 1.207912207E+00 -1.250000000E-01 3.434183236E-05 2.518770471E-02 -1.024213736E-03 -6.482935078E-07 6.568814814E-02
 1.207912207E+00 -1.250000000E-01 3.520308746E-05 2.581093088E-02 -1.050051767E-03 -6.814143489E-07 6.568814814E-02
 1.207912207E+00 -1.250000000E-01 3.607866165E-05 2.644357085E-02 -1.076304121E-03 -7.159292181E-07 6.568814814E-02
 1.207912207E+00 -1.250000000E-01 3.696891145E-05 2.708576992E-02 -1.102977665E-03 -7.518924008E-07 6.568814814E-02
 1.207912207E+00 -1.250000000E-01 3.787420064E-05 2.773767151E-02 -1.130079385E-03 -7.893605130E-07 6.568814814E-02
 1.207912207E+00 -1.250000000E-01 3.879489668E-05 2.839940414E-02 -1.157615916E-03 -8.283918760E-07 6.568814814E-02
 1.207912207E+00 -1.250000000E-01 3.973137063E-05 2.907108702E-02 -1.185593079E-03 -8.690467439E-07 6.568814814E-02
 1.207912207E+00 -1.250000000E-01 4.068400813E-05 2.975283563E-02 -1.214016927E-03 -9.113876445E-07 6.568814814E-02
 1.207912207E+00 -1.250000000E-01 4.165319478E-05 3.044474125E-02 -1.242892700E-03 -9.554787539E-07 6.568814814E-02
 1.207912207E+00 -1.250000000E-01 4.263932351E-05 3.114689887E-02 -1.272225170E-03 -1.001386750E-06 6.568814814E-02
 1.207912207E+00 -1.250000000E-01 4.364279812E-05 3.185937554E-02 -1.302018645E-03 -1.049180014E-06 6.568814814E-02
 1.207912207E+00 -1.250000000E-01 4.466402606E-05 3.258223087E-02 -1.332276617E-03 -1.098929033E-06 6.568814814E-02
 1.207912207E+00 -1.250000000E-01 4.570341844E-05 3.331550211E-02 -1.363001764E-03 -1.150706339E-06 6.568814814E-02
 1.207912207E+00 -1.250000000E-01 4.676140452E-05 3.405920416E-02 -1.394196646E-03 -1.204586397E-06 6.568814814E-02
 1.207912207E+00 -1.250000000E-01 4.783841359E-05 3.481334075E-02 -1.425863127E-03 -1.260648446E-06 6.568819284E-02
 1.207912207E+00 -1.250000000E-01 4.893487858E-05 3.557788581E-02 -1.457999693E-03 -1.318965360E-06 6.568819284E-02
 1.207912207E+00 -1.250000000E-01 5.005125058E-05 3.635279834E-02 -1.490606461E-03 -1.379620130E-06 6.568819284E-02
 1.207912207E+00 -1.250000000E-01 5.118798072E-05 3.713799268E-02 -1.523681916E-03 -1.442694497E-06 6.568819284E-02
 1.207912207E+00 -1.250000000E-01 5.234553100E-05 3.793336824E-02 -1.557222800E-03 -1.508272021E-06 6.568819284E-02
 1.207912207E+00 -1.250000000E-01 5.352437802E-05 3.873879090E-02 -1.591224573E-03 -1.576437739E-06 6.568819284E-02
 1.207912207E+00 -1.250000000E-01 5.472499470E-05 3.955410048E-02 -1.625681878E-03 -1.647278282E-06 6.568819284E-02
 1.207912207E+00 -1.250000000E-01 5.594787217E-05 4.037908465E-02 -1.660587266E-03 -1.720881414E-06 6.568819284E-02
 1.207912207E+00 -1.250000000E-01 5.719350884E-05 4.121351242E-02 -1.695932006E-03 -1.797335926E-06 6.568819284E-02
 1.207912207E+00 -1.250000000E-01 5.846241038E-05 4.205710441E-02 -1.731705968E-03 -1.876731631E-06 6.568819284E-02
 1.207912207E+00 -1.250000000E-01 5.975508975E-05 4.290954396E-02 -1.767896465E-03 -1.959159135E-06 6.568819284E-02
 1.207912207E+00 -1.250000000E-01 6.107207446E-05 4.377047345E-02 -1.804489642E-03 -2.044709390E-06 6.568819284E-02
 1.207912207E+00 -1.250000000E-01 6.241390656E-05 4.463948682E-02 -1.841469784E-03 -2.133473117E-06 6.568819284E-02
 1.207912207E+00 -1.250000000E-01 6.378112448E-05 4.551614821E-02 -1.878819079E-03 -2.225543085E-06 6.568819284E-02
 1.207912207E+00 -1.250000000E-01 6.517428847E-05 4.639995843E-02 -1.916517504E-03 -2.321009333E-06 6.568819284E-02
 1.207912207E+00 -1.250000000E-01 6.659396604E-05 4.729038104E-02 -1.954543171E-03 -2.419963266E-06 6.568819284E-02
 1.207912207E+00 -1.250000000E-01 6.804072473E-05 4.818683490E-02 -1.992872451E-03 -2.522494469E-06 6.568819284E-02
 1.207912207E+00 -1.250000000E-01 6.951516116E-05 4.908869788E-02 -2.031479031E-03 -2.628692073E-06 6.568819284E-02
 1.207912207E+00 -1.250000000E-01 7.101787924E-05 4.999529198E-02 -2.070335438E-03 -2.738644525E-06 6.568819284E-02
 1.207912207E+00 -1.250000000E-01 7.254948287E-05 5.090591311E-02 -2.109411871E-03 -2.852437774E-06 6.568819284E-02
 1.207912207E+00 -1.250000000E-01 7.411059778E-05 5.181980133E-02 -2.148676198E-03 -2.970157084E-06 6.568819284E-02
 1.207912207E+00 -1.250000000E-01 7.570186426E-05 5.273616314E-02 -2.188095124E-03 -3.091884764E-06 6.568819284E-02
 1.207912207E+00 -1.250000000E-01 7.732391532E-05 5.365418270E-02 -2.227633959E-03 -3.217702215E-06 6.568819284E-02
 1.207912207E+00 -1.250000000E-01 7.897742034E-05 5.457300320E-02 -2.267255913E-03 -3.347688107E-06 6.568819284E-02
 1.207912207E+00 -1.250000000E-01 8.066305600E-05 5.549174175E-02 -2.306923503E-03 -3.481918839E-06 6.568819284E-02
 1.207912207E+00 -1.250000000E-01 8.238149894E-05 5.640950054E-02 -2.346597379E-03 -3.620468533E-06 6.568819284E-02
 1.207912207E+00 -1.250000000E-01 8.413345495E-05 5.732536316E-02 -2.386238659E-03 -3.763409040E-06 6.568819284E-02
 1.207912207E+00 -1.250000000E-01 8.591963706E-05 5.823841318E-02 -2.425806597E-03 -3.910809937E-06 6.568819284E-02
 1.207912207E+00 -1.250000000E-01 8.774075832E-05 5.914771929E-02 -2.465261146E-03 -4.062738753E-06 6.568819284E-02
 1.207912207E+00 -1.250000000E-01 8.959758270E-05 6.005236506E-02 -2.504562261E-03 -4.219260063E-06 6.568819284E-02
 1.207912207E+00 -1.250000000E-01 9.149084508E-05 6.095144153E-02 -2.543669660E-03 -4.380437986E-06 6.568819284E-02
 1.207912207E+00 -1.250000000E-01 9.342132398E-05 6.184406951E-02 -2.582544228E-03 -4.546334821E-06 6.568819284E-02
 1.207912207E+00 -1.250000000E-01 9.538980521E-05 6.272937357E-02 -2.621147782E-03 -4.717008778E-06 6.568819284E-02
 1.207912207E+00 -1.250000000E-01 9.739708912E-05 6.360653043E-02 -2.659442835E-03 -4.892523066E-06 6.568819284E-02
 1.207912207E+00 -1.250000000E-01 9.944399062E-05 6.447475404E-02 -2.697393764E-03 -5.072934528E-06 6.568819284E-02
 1.207912207E+00 -1.250000000E-01 1.015313392E-04 6.533329934E-02 -2.734967275E-03 -5.258303190E-06 6.568819284E-02
 1.207912207E+00 -1.250000000E-01 1.036599933E-04 6.618145853E-02 -2.772131236E-03 -5.448687261E-06 6.568819284E-02
 1.207912207E+00 -1.250000000E-01 1.058308117E-04 6.701859087E-02 -2.808856545E-03 -5.644148587E-06 6.568819284E-02
 1.207912207E+00 -1.250000000E-01 1.080446746E-04 6.784412265E-02 -2.845115960E-03 -5.844748102E-06 6.568521261E-02
 1.207912207E+00 -1.250000000E-01 1.103024915E-04 6.865752488E-02 -2.880885266E-03 -6.050549473E-06 6.568819284E-02
 1.207912207E+00 -1.250000000E-01 1.126051793E-04 6.945833564E-02 -2.916142810E-03 -6.261617727E-06 6.568819284E-02
 1.207912207E+00 -1.250000000E-01 1.149536620E-04 7.024616748E-02 -2.950869733E-03 -6.478022442E-06 6.568819284E-02
 1.207912207E+00 -1.250000000E-01 1.173489145E-04 7.102067769E-02 -2.985048806E-03 -6.699835012E-06 6.568819284E-02
 1.207912207E+00 -1.250000000E-01 1.197918973E-04 7.178161293E-02 -3.018667689E-03 -6.927130926E-06 6.568521261E-02
 1.207912207E+00 -1.250000000E-01 1.222835999E-04 7.252877951E-02 -3.051715437E-03 -7.159989764E-06 6.568819284E-02
 1.207912207E+00 -1.250000000E-01 1.248250628E-04 7.326201349E-02 -3.084184369E-03 -7.398494290E-06 6.568521261E-02
 1.207912207E+00 -1.250000000E-01 1.274172828E-04 7.398124784E-02 -3.116068896E-03 -7.642733181E-06 6.568819284E-02
 1.207912207E+00 -1.250000000E-01 1.300613367E-04 7.468646765E-02 -3.147367155E-03 -7.892803296E-06 6.568819284E-02
 1.207912207E+00 -1.250000000E-01 1.327583013E-04 7.537769526E-02 -3.178077750E-03 -8.148798770E-06 6.568819284E-02
 1.207912207E+00 -1.250000000E-01 1.355092681E-04 7.605502009E-02 -3.208202776E-03 -8.410828741E-06 6.568521261E-02
 1.207912207E+00 -1.250000000E-01 1.383153576E-04 7.671854645E-02 -3.237747122E-03 -8.678999620E-06 6.568819284E-02
 1.207912207E+00 -1.250000000E-01 1.411777048E-04 7.736847550E-02 -3.266715212E-03 -8.953429642E-06 6.568819284E-02
 1.207912207E+00 -1.250000000E-01 1.440974738E-04 7.800500095E-02 -3.295115428E-03 -9.234237950E-06 6.568521261E-02
 1.207912207E+00 -1.250000000E-01 1.470758725E-04 7.862836123E-02 -3.322957316E-03 -9.521558241E-06 6.568819284E-02
 1.207912207E+00 -1.250000000E-01 1.501140796E-04 7.923883945E-02 -3.350250889E-03 -9.815519661E-06 6.568521261E-02
 1.207912207E+00 -1.250000000E-01 1.532133610E-04 7.983671874E-02 -3.377008252E-03 -1.011626500E-05 6.568819284E-02
 1.207912207E+00 -1.250000000E-01 1.563749538E-04 8.042231947E-02 -3.403241746E-03 -1.042393978E-05 6.568819284E-02
 1.207912207E+00 -1.250000000E-01 1.596001675E-04 8.099599183E-02 -3.428965341E-03 -1.073869862E-05 6.568819284E-02
 1.207912207E+00 -1.250000000E-01 1.628902974E-04 8.155807853E-02 -3.454193007E-03 -1.106069976E-05 6.568521261E-02
 1.207912207E+00 -1.250000000E-01 1.662466966E-04 8.210894465E-02 -3.478940111E-03 -1.139010783E-05 6.568521261E-02
 1.207912207E+00 -1.250000000E-01 1.696707041E-04 8.264896274E-02 -3.503221786E-03 -1.172709744E-05 6.568521261E-02
 1.207912207E+00 -1.250000000E-01 1.731637312E-04 8.317851275E-02 -3.527054330E-03 -1.207184687E-05 6.568521261E-02
 1.207912207E+00 -1.250000000E-01 1.767272042E-04 8.369797468E-02 -3.550452646E-03 -1.242453709E-05 6.568521261E-02
 1.207912207E+00 -1.250000000E-01 1.803625637E-04 8.420773596E-02 -3.573433263E-03 -1.278536274E-05 6.568521261E-02
 1.207912207E+00 -1.250000000E-01 1.840712794E-04 8.470816165E-02 -3.596012015E-03 -1.315452027E-05 6.568521261E-02
 1.207912207E+00 -1.250000000E-01 1.878548792E-04 8.519964665E-02 -3.618205199E-03 -1.353221160E-05 6.568521261E-02
 1.207912207E+00 -1.250000000E-01 1.917148911E-04 8.568255603E-02 -3.640027950E-03 -1.391864680E-05 6.568521261E-02
 1.207912207E+00 -1.250000000E-01 1.956528868E-04 8.615726233E-02 -3.661496332E-03 -1.431404417E-05 6.568521261E-02
 1.207912207E+00 -1.250000000E-01 1.996704668E-04 8.662413061E-02 -3.682625480E-03 -1.471862561E-05 6.568521261E-02
 1.207912207E+00 -1.250000000E-01 2.037692757E-04 8.708350360E-02 -3.703430295E-03 -1.513261850E-05 6.568521261E-02
 1.207912207E+00 -1.250000000E-01 2.079509577E-04 8.753573149E-02 -3.723925678E-03 -1.555626113E-05 6.568521261E-02
 1.207912207E+00 -1.250000000E-01 2.122172300E-04 8.798114210E-02 -3.744125366E-03 -1.598979361E-05 6.568521261E-02
 1.207912207E+00 -1.250000000E-01 2.165698388E-04 8.842007071E-02 -3.764043562E-03 -1.643346150E-05 6.568521261E-02
 1.207912207E+00 -1.250000000E-01 2.210105304E-04 8.885282278E-02 -3.783693304E-03 -1.688752309E-05 6.568223238E-02
 1.207912207E+00 -1.250000000E-01 2.255411237E-04 8.927971870E-02 -3.803088330E-03 -1.735224396E-05 6.568521261E-02
 1.207912207E+00 -1.250000000E-01 2.301634668E-04 8.970103413E-02 -3.822240047E-03 -1.782788786E-05 6.568521261E-02
 1.207912207E+00 -1.250000000E-01 2.348794369E-04 9.011705965E-02 -3.841161262E-03 -1.831473128E-05 6.568223238E-02
 1.207912207E+00 -1.250000000E-01 2.396909404E-04 9.052807093E-02 -3.859862918E-03 -1.881305616E-05 6.568223238E-02
 1.207912207E+00 -1.250000000E-01 2.445999417E-04 9.093431383E-02 -3.878356190E-03 -1.932315354E-05 6.568223238E-02
 1.207912207E+00 -1.250000000E-01 2.496084489E-04 9.133604914E-02 -3.896652022E-03 -1.984531809E-05 6.568223238E-02
 1.207912207E+00 -1.250000000E-01 2.547184704E-04 9.173352271E-02 -3.914759960E-03 -2.037985723E-05 6.568223238E-02
 1.207912207E+00 -1.250000000E-01 2.599321306E-04 9.212695807E-02 -3.932690248E-03 -2.092708019E-05 6.568223238E-02
 1.207912207E+00 -1.250000000E-01 2.652514959E-04 9.251655638E-02 -3.950451501E-03 -2.148730709E-05 6.568223238E-02
 1.207912207E+00 -1.250000000E-01 2.706787782E-04 9.290256351E-02 -3.968053032E-03 -2.206086538E-05 6.568223238E-02
 1.207912207E+00 -1.250000000E-01 2.762161603E-04 9.328515083E-02 -3.985502757E-03 -2.264808973E-05 6.568223238E-02
 1.207912207E+00 -1.250000000E-01 2.818659123E-04 9.366450459E-02 -4.002808593E-03 -2.324932211E-05 6.568223238E-02
 1.207912207E+00 -1.250000000E-01 2.876303042E-04 9.404082596E-02 -4.019977525E-03 -2.386491178E-05 6.568223238E-02
 1.207912207E+00 -1.250000000E-01 2.935116936E-04 9.441427886E-02 -4.037017934E-03 -2.449522253E-05 6.568223238E-02
 1.207912207E+00 -1.250000000E-01 2.995124669E-04 9.478502721E-02 -4.053934943E-03 -2.514062362E-05 6.568223238E-02
 1.207912207E+00 -1.250000000E-01 3.056350979E-04 9.515322000E-02 -4.070735537E-03 -2.580148794E-05 6.567925215E-02
 1.207912207E+00 -1.250000000E-01 3.118820314E-04 9.551901370E-02 -4.087425303E-03 -2.647820293E-05 6.567925215E-02
 1.207912207E+00 -1.250000000E-01 3.182558285E-04 9.588253498E-02 -4.104010295E-03 -2.717116513E-05 6.567925215E-02
 1.207912207E+00 -1.250000000E-01 3.247591085E-04 9.624392539E-02 -4.120494705E-03 -2.788077836E-05 6.567925215E-02
 1.207912207E+00 -1.250000000E-01 3.313944617E-04 9.660331905E-02 -4.136884585E-03 -2.860745553E-05 6.568223238E-02
 1.207912207E+00 -1.250000000E-01 3.381646238E-04 9.696082026E-02 -4.153184127E-03 -2.935162229E-05 6.567925215E-02
 1.207912207E+00 -1.250000000E-01 3.450723598E-04 9.731655568E-02 -4.169396590E-03 -3.011371518E-05 6.567925215E-02
 1.207912207E+00 -1.250000000E-01 3.521204344E-04 9.767061472E-02 -4.185526632E-03 -3.089417442E-05 6.567925215E-02
 1.207912207E+00 -1.250000000E-01 3.593117581E-04 9.802311659E-02 -4.201577976E-03 -3.169346019E-05 6.567925215E-02
 1.207912207E+00 -1.250000000E-01 3.666492412E-04 9.837414324E-02 -4.217553884E-03 -3.251203088E-05 6.567925215E-02
 1.207912207E+00 -1.250000000E-01 3.741358523E-04 9.872379154E-02 -4.233457148E-03 -3.335037400E-05 6.567925215E-02
 1.207912207E+00 -1.250000000E-01 3.817746765E-04 9.907214344E-02 -4.249291029E-03 -3.420896610E-05 6.567627192E-02
 1.207912207E+00 -1.250000000E-01 3.895687696E-04 9.941928834E-02 -4.265057389E-03 -3.508832015E-05 6.567627192E-02
 1.207912207E+00 -1.250000000E-01 3.975213331E-04 9.976528585E-02 -4.280759022E-03 -3.598893090E-05 6.567627192E-02
 1.207912207E+00 -1.250000000E-01 4.056355974E-04 1.001102254E-01 -4.296398256E-03 -3.691134043E-05 6.567627192E-02
 1.207912207E+00 -1.250000000E-01 4.139148805E-04 1.004541665E-01 -4.311976489E-03 -3.785607259E-05 6.567627192E-02
 1.207912207E+00 -1.250000000E-01 4.223625001E-04 1.007971689E-01 -4.327495117E-03 -3.882368401E-05 6.567627192E-02
 1.207912207E+00 -1.250000000E-01 4.309819487E-04 1.011392996E-01 -4.342956468E-03 -3.981473128E-05 6.567627192E-02
 1.207912207E+00 -1.250000000E-01 4.397767188E-04 1.014806107E-01 -4.358361010E-03 -4.082978921E-05 6.567627192E-02
 1.207912207E+00 -1.250000000E-01 4.487503611E-04 1.018211618E-01 -4.373709671E-03 -4.186945080E-05 6.567329168E-02
 1.207912207E+00 -1.250000000E-01 4.579065426E-04 1.021610051E-01 -4.389004782E-03 -4.293431266E-05 6.567329168E-02
 1.207912207E+00 -1.250000000E-01 4.672489886E-04 1.025001779E-01 -4.404244944E-03 -4.402500053E-05 6.567329168E-02
 1.207912207E+00 -1.250000000E-01 4.767814826E-04 1.028387323E-01 -4.419432022E-03 -4.514213651E-05 6.567329168E-02
 1.207912207E+00 -1.250000000E-01 4.865079245E-04 1.031767055E-01 -4.434565548E-03 -4.628637544E-05 6.567329168E-02
 1.207912207E+00 -1.250000000E-01 4.964323016E-04 1.035141498E-01 -4.449645989E-03 -4.745837214E-05 6.567329168E-02
 1.207912207E+00 -1.250000000E-01 5.065585719E-04 1.038510874E-01 -4.464673810E-03 -4.865880692E-05 6.567329168E-02
 1.207912207E+00 -1.250000000E-01 5.168908974E-04 1.041875631E-01 -4.479648080E-03 -4.988837100E-05 6.567329168E-02
 1.207912207E+00 -1.250000000E-01 5.274334690E-04 1.045236215E-01 -4.494569730E-03 -5.114778105E-05 6.567031145E-02
 1.207912207E+00 -1.250000000E-01 5.381905939E-04 1.048592776E-01 -4.509436898E-03 -5.243775013E-05 6.567329168E-02
 1.207912207E+00 -1.250000000E-01 5.491666379E-04 1.051945612E-01 -4.524249583E-03 -5.375903129E-05 6.567031145E-02
 1.207912207E+00 -1.250000000E-01 5.603660829E-04 1.055295020E-01 -4.539007321E-03 -5.511238123E-05 6.567031145E-02
 1.207912207E+00 -1.250000000E-01 5.717934691E-04 1.058641374E-01 -4.553708714E-03 -5.649857485E-05 6.567031145E-02
 1.207912207E+00 -1.250000000E-01 5.834534531E-04 1.061984748E-01 -4.568353761E-03 -5.791841249E-05 6.567031145E-02
 1.207912207E+00 -1.250000000E-01 5.953507498E-04 1.065325513E-01 -4.582940135E-03 -5.937270544E-05 6.567031145E-02
 1.207912207E+00 -1.250000000E-01 6.074902485E-04 1.068663895E-01 -4.597466905E-03 -6.086228314E-05 6.566733122E-02
 1.207912207E+00 -1.250000000E-01 6.198768388E-04 1.072000116E-01 -4.611933604E-03 -6.238801870E-05 6.566733122E-02
 1.207912207E+00 -1.250000000E-01 6.325155264E-04 1.075334102E-01 -4.626340698E-03 -6.395085802E-05 6.566737592E-02
 1.207912207E+00 -1.250000000E-01 6.454115501E-04 1.078666523E-01 -4.640681203E-03 -6.555151776E-05 6.566737592E-02
 1.207912207E+00 -1.250000000E-01 6.585700903E-04 1.081997305E-01 -4.654956050E-03 -6.719098019E-05 6.566737592E-02
 1.207912207E+00 -1.250000000E-01 6.719965604E-04 1.085326746E-01 -4.669163842E-03 -6.887021300E-05 6.566439569E-02
 1.207912207E+00 -1.250000000E-01 6.856963155E-04 1.088654771E-01 -4.683301784E-03 -7.059014752E-05 6.566737592E-02
 1.207912207E+00 -1.250000000E-01 6.996750599E-04 1.091981754E-01 -4.697368946E-03 -7.235176599E-05 6.566439569E-02
 1.207912207E+00 -1.250000000E-01 7.139383815E-04 1.095307693E-01 -4.711361602E-03 -7.415606524E-05 6.566439569E-02
 1.207912207E+00 -1.250000000E-01 7.284921012E-04 1.098632962E-01 -4.725279287E-03 -7.600407844E-05 6.566439569E-02
 1.207912207E+00 -1.250000000E-01 7.433421561E-04 1.101957485E-01 -4.739118740E-03 -7.789683150E-05 6.566141546E-02
 1.207912207E+00 -1.250000000E-01 7.584945997E-04 1.105281487E-01 -4.752877634E-03 -7.983540127E-05 6.566141546E-02
 1.207912207E+00 -1.250000000E-01 7.739555440E-04 1.108605191E-01 -4.766553175E-03 -8.182089368E-05 6.566141546E-02
 1.207912207E+00 -1.250000000E-01 7.897313335E-04 1.111928523E-01 -4.780142568E-03 -8.385440015E-05 6.566141546E-02
 1.207912207E+00 -1.250000000E-01 8.058283711E-04 1.115251854E-01 -4.793643486E-03 -8.593707753E-05 6.565843523E-02
 1.207912207E+00 -1.250000000E-01 8.222531760E-04 1.118575111E-01 -4.807052668E-03 -8.807008271E-05 6.565843523E-02
 1.207912207E+00 -1.250000000E-01 8.390124422E-04 1.121898517E-01 -4.820367787E-03 -9.025461623E-05 6.565843523E-02
 1.207912207E+00 -1.250000000E-01 8.561130380E-04 1.125222221E-01 -4.833585117E-03 -9.249188588E-05 6.565843523E-02
 1.207912207E+00 -1.250000000E-01 8.735618321E-04 1.128546223E-01 -4.846701864E-03 -9.478314314E-05 6.565843523E-02
 1.207912207E+00 -1.250000000E-01 8.913659840E-04 1.131870747E-01 -4.859714303E-03 -9.712966130E-05 6.565545499E-02
 1.207912207E+00 -1.250000000E-01 9.095327114E-04 1.135195866E-01 -4.872619174E-03 -9.953272092E-05 6.565545499E-02
 1.207912207E+00 -1.250000000E-01 9.280694067E-04 1.138521731E-01 -4.885413684E-03 -1.019936681E-04 6.565545499E-02
 1.207912207E+00 -1.250000000E-01 9.469836368E-04 1.141848564E-01 -4.898093641E-03 -1.045138561E-04 6.565247476E-02
 1.207912207E+00 -1.250000000E-01 9.662830271E-04 1.145176366E-01 -4.910655320E-03 -1.070946528E-04 6.565247476E-02
 1.207912207E+00 -1.250000000E-01 9.859754937E-04 1.148505285E-01 -4.923095461E-03 -1.097374843E-04 6.565247476E-02
 1.207912207E+00 -1.250000000E-01 1.006069011E-03 1.151835322E-01 -4.935409874E-03 -1.124437840E-04 6.564949453E-02
 1.207912207E+00 -1.250000000E-01 1.026571845E-03 1.155166924E-01 -4.947595298E-03 -1.152150289E-04 6.564949453E-02
 1.207912207E+00 -1.250000000E-01 1.047492144E-03 1.158500016E-01 -4.959647078E-03 -1.180527106E-04 6.564651430E-02
 1.207912207E+00 -1.250000000E-01 1.068838639E-03 1.161834672E-01 -4.971561022E-03 -1.209583788E-04 6.564651430E-02
 1.207912207E+00 -1.250000000E-01 1.090619829E-03 1.165171266E-01 -4.983332939E-03 -1.239335688E-04 6.564651430E-02
 1.207912207E+00 -1.250000000E-01 1.112844679E-03 1.168509796E-01 -4.994960036E-03 -1.269799250E-04 6.564651430E-02
 1.207912207E+00 -1.250000000E-01 1.135522267E-03 1.171850339E-01 -5.006435327E-03 -1.300990116E-04 6.564353406E-02
 1.207912207E+00 -1.250000000E-01 1.158661675E-03 1.175193265E-01 -5.017756484E-03 -1.332925167E-04 6.564055383E-02
 1.207912207E+00 -1.250000000E-01 1.182272448E-03 1.178538576E-01 -5.028918851E-03 -1.365621574E-04 6.564055383E-02
 1.207912207E+00 -1.250000000E-01 1.206364017E-03 1.181886494E-01 -5.039920099E-03 -1.399098546E-04 6.563761830E-02
 1.207912207E+00 -1.250000000E-01 1.230946393E-03 1.185237244E-01 -5.050749052E-03 -1.433369034E-04 6.564059854E-02
 1.207912207E+00 -1.250000000E-01 1.256029471E-03 1.188590899E-01 -5.061404780E-03 -1.468453411E-04 6.563761830E-02
 1.207912207E+00 -1.250000000E-01 1.281623496E-03 1.191947758E-01 -5.071882624E-03 -1.504369720E-04 6.563463807E-02
 1.207912207E+00 -1.250000000E-01 1.307738828E-03 1.195308119E-01 -5.082177464E-03 -1.541136589E-04 6.563463807E-02
 1.207912207E+00 -1.250000000E-01 1.334386063E-03 1.198671907E-01 -5.092283245E-03 -1.578772935E-04 6.563463807E-02
 1.207912207E+00 -1.250000000E-01 1.361576142E-03 1.202039570E-01 -5.102196708E-03 -1.617297967E-04 6.563165784E-02
 1.207912207E+00 -1.250000000E-01 1.389320125E-03 1.205411255E-01 -5.111911334E-03 -1.656731329E-04 6.562867761E-02
 1.207912207E+00 -1.250000000E-01 1.417629072E-03 1.208787262E-01 -5.121422000E-03 -1.697092957E-04 6.562867761E-02
 1.207912207E+00 -1.250000000E-01 1.446514856E-03 1.212167740E-01 -5.130724050E-03 -1.738402934E-04 6.562569737E-02
 1.207912207E+00 -1.250000000E-01 1.475988887E-03 1.215553060E-01 -5.139811430E-03 -1.780682069E-04 6.562569737E-02
 1.207912207E+00 -1.250000000E-01 1.506063389E-03 1.218943447E-01 -5.148679018E-03 -1.823951316E-04 6.562271714E-02
 1.207912207E+00 -1.250000000E-01 1.536750467E-03 1.222339049E-01 -5.157320295E-03 -1.868231629E-04 6.562271714E-02
 1.207912207E+00 -1.250000000E-01 1.568062697E-03 1.225740239E-01 -5.165730603E-03 -1.913544984E-04 6.561973691E-02
 1.207912207E+00 -1.250000000E-01 1.600012765E-03 1.229147613E-01 -5.173904356E-03 -1.959913207E-04 6.561675668E-02
 1.207912207E+00 -1.250000000E-01 1.632613712E-03 1.232561246E-01 -5.181835033E-03 -2.007358416E-04 6.561675668E-02
 1.207912207E+00 -1.250000000E-01 1.665878692E-03 1.235981360E-01 -5.189517047E-03 -2.055903460E-04 6.561079621E-02
 1.207912207E+00 -1.250000000E-01 1.699821325E-03 1.239408627E-01 -5.196944345E-03 -2.105571475E-04 6.561079621E-02
 1.207912207E+00 -1.250000000E-01 1.734455349E-03 1.242843121E-01 -5.204111338E-03 -2.156385162E-04 6.561079621E-02
 1.207912207E+00 -1.250000000E-01 1.769794966E-03 1.246285141E-01 -5.211014301E-03 -2.208372025E-04 6.560488045E-02
 1.207912207E+00 -1.250000000E-01 1.805854496E-03 1.249735579E-01 -5.217641126E-03 -2.261548943E-04 6.560488045E-02
 1.207912207E+00 -1.250000000E-01 1.842648489E-03 1.253194511E-01 -5.223988090E-03 -2.315943275E-04 6.560190022E-02
 1.207912207E+00 -1.250000000E-01 1.880192081E-03 1.256662309E-01 -5.230050068E-03 -2.371579758E-04 6.560190022E-02
 1.207912207E+00 -1.250000000E-01 1.918500522E-03 1.260139793E-01 -5.235819612E-03 -2.428483422E-04 6.559891999E-02
 1.207912207E+00 -1.250000000E-01 1.957589295E-03 1.263626963E-01 -5.241290201E-03 -2.486678713E-04 6.559295952E-02
 1.207912207E+00 -1.250000000E-01 1.997474348E-03 1.267124563E-01 -5.246455781E-03 -2.546191099E-04 6.559295952E-02
 1.207912207E+00 -1.250000000E-01 2.038171981E-03 1.270633191E-01 -5.251308437E-03 -2.607046044E-04 6.558997929E-02
 1.207912207E+00 -1.250000000E-01 2.079698723E-03 1.274153143E-01 -5.255843047E-03 -2.669270034E-04 6.558699906E-02
 1.207912207E+00 -1.250000000E-01 2.122071339E-03 1.277685314E-01 -5.260051694E-03 -2.732888388E-04 6.558401883E-02
 1.207912207E+00 -1.250000000E-01 2.165307058E-03 1.281229854E-01 -5.263927393E-03 -2.797927300E-04 6.558103859E-02
 1.207912207E+00 -1.250000000E-01 2.209423808E-03 1.284787655E-01 -5.267463159E-03 -2.864413837E-04 6.557805836E-02