VARIABLES = "N","h=(1/N)^(1/3)","C_L","C_D","C_Dp","C_Dv"
ZONE T="CFL3D SA-neg, 2nd order turb"
 5.767168000E+07 2.588290023E-03 2.503381856E-02 3.585430328E-03 3.781135019E-04 3.207316855E-03
 7.208960000E+06 5.176569801E-03 2.497165091E-02 3.591929330E-03 3.835060052E-04 3.208423266E-03
 9.011200000E+05 1.035309955E-02 2.484648488E-02 3.631453495E-03 4.242850700E-04 3.207168309E-03
 1.126400000E+05 2.070629969E-02 2.453749068E-02 3.895524656E-03 6.967546651E-04 3.198770108E-03
 1.408000000E+04 4.141259938E-02 2.333884127E-02 5.161414854E-03 1.981974812E-03 3.179440275E-03
 1.760000000E+03 8.282519877E-02 1.767452620E-02 1.030075643E-02 7.072075736E-03 3.228679998E-03
