VARIABLES = "X","Y","Z","u","v","w","cp"
ZONE T="FUN3D, grid 1"
    0.120790994E+01   -0.125000000E+00    0.249999999E-06    0.183883007E-03   -0.733560000E-05   -0.277981995E-10    0.655803010E-01
    0.120790994E+01   -0.125000000E+00    0.750102004E-06    0.551710022E-03   -0.220135007E-04   -0.267081995E-09    0.655803010E-01
    0.120790994E+01   -0.125000000E+00    0.125050997E-05    0.919733022E-03   -0.367077991E-04   -0.796433974E-09    0.655803010E-01
    0.120790994E+01   -0.125000000E+00    0.175141997E-05    0.128810003E-02   -0.514245003E-04   -0.157659996E-08    0.655803010E-01
    0.120790994E+01   -0.125000000E+00    0.200202999E-05    0.147239002E-02   -0.587891991E-04   -0.203888995E-08    0.655803010E-01
    0.120790994E+01   -0.125000000E+00    0.225305007E-05    0.165697001E-02   -0.661696031E-04   -0.262795008E-08    0.655803010E-01
    0.120790994E+01   -0.125000000E+00    0.275560001E-05    0.202647992E-02   -0.809491976E-04   -0.395061006E-08    0.655803010E-01
    0.120790994E+01   -0.125000000E+00    0.300712008E-05    0.221141009E-02   -0.883483008E-04   -0.468420991E-08    0.655803010E-01
    0.120790994E+01   -0.125000000E+00    0.325925998E-05    0.239678007E-02   -0.957692027E-04   -0.555463986E-08    0.655803010E-01
    0.120790994E+01   -0.125000000E+00    0.376425010E-05    0.276802992E-02   -0.110636000E-03   -0.741579997E-08    0.655803010E-01
    0.120790994E+01   -0.125000000E+00    0.427077021E-05    0.314037991E-02   -0.125555001E-03   -0.955633972E-08    0.655803010E-01
    0.120790994E+01   -0.125000000E+00    0.477902995E-05    0.351397996E-02   -0.140532997E-03   -0.119888002E-07    0.655801967E-01
    0.120790994E+01   -0.125000000E+00    0.528924011E-05    0.388897001E-02   -0.155575995E-03   -0.147090997E-07    0.655801967E-01
    0.120790994E+01   -0.125000000E+00    0.554484995E-05    0.407683989E-02   -0.163114993E-03   -0.161467000E-07    0.655801967E-01
    0.120790994E+01   -0.125000000E+00    0.580158985E-05    0.426551979E-02   -0.170690997E-03   -0.177192998E-07    0.655801967E-01
    0.120790994E+01   -0.125000000E+00    0.631631019E-05    0.464376016E-02   -0.185882003E-03   -0.210284003E-07    0.655801967E-01
    0.120790994E+01   -0.125000000E+00    0.657428018E-05    0.483332994E-02   -0.193497996E-03   -0.227647998E-07    0.655801967E-01
    0.120790994E+01   -0.125000000E+00    0.683358985E-05    0.502387015E-02   -0.201158007E-03   -0.246376999E-07    0.655801967E-01
    0.120790994E+01   -0.125000000E+00    0.735365984E-05    0.540598016E-02   -0.216522996E-03   -0.285502999E-07    0.655801967E-01
    0.120790994E+01   -0.125000000E+00    0.787670979E-05    0.579026016E-02   -0.231985003E-03   -0.328048983E-07    0.655801967E-01
    0.120790994E+01   -0.125000000E+00    0.840296980E-05    0.617686007E-02   -0.247549004E-03   -0.373718016E-07    0.655801967E-01
    0.120790994E+01   -0.125000000E+00    0.893265042E-05    0.656592986E-02   -0.263222988E-03   -0.422637996E-07    0.655801967E-01
    0.120790994E+01   -0.125000000E+00    0.946595992E-05    0.695763994E-02   -0.279013009E-03   -0.475013984E-07    0.655801967E-01
    0.120790994E+01   -0.125000000E+00    0.100031002E-04    0.735213002E-02   -0.294923986E-03   -0.530590008E-07    0.655801967E-01
    0.120790994E+01   -0.125000000E+00    0.105442996E-04    0.774957985E-02   -0.310964999E-03   -0.589895990E-07    0.655801967E-01
    0.120790994E+01   -0.125000000E+00    0.110899000E-04    0.815012958E-02   -0.327140995E-03   -0.652960992E-07    0.655801967E-01
    0.120790994E+01   -0.125000000E+00    0.116398996E-04    0.855393987E-02   -0.343458989E-03   -0.719803026E-07    0.655801967E-01
    0.120790994E+01   -0.125000000E+00    0.121946996E-04    0.896118954E-02   -0.359925994E-03   -0.790537982E-07    0.655801967E-01
    0.120790994E+01   -0.125000000E+00    0.127543999E-04    0.937202014E-02   -0.376549986E-03   -0.865302994E-07    0.655801967E-01
    0.120790994E+01   -0.125000000E+00    0.133192998E-04    0.978660956E-02   -0.393335009E-03   -0.944217007E-07    0.655801967E-01
    0.120790994E+01   -0.125000000E+00    0.136031003E-04    0.999487005E-02   -0.401769998E-03   -0.984617969E-07    0.655801967E-01
    0.120790994E+01   -0.125000000E+00    0.138896003E-04    0.102051003E-01   -0.410290988E-03   -0.102742000E-06    0.655801967E-01
    0.120790994E+01   -0.125000000E+00    0.144655996E-04    0.106277000E-01   -0.427422987E-03   -0.111505003E-06    0.655801967E-01
    0.120790994E+01   -0.125000000E+00    0.147549999E-04    0.108401002E-01   -0.436033995E-03   -0.115988001E-06    0.655801967E-01
    0.120790994E+01   -0.125000000E+00    0.150474998E-04    0.110545997E-01   -0.444739009E-03   -0.120726000E-06    0.655801967E-01
    0.120790994E+01   -0.125000000E+00    0.156355000E-04    0.114858001E-01   -0.462246011E-03   -0.130420005E-06    0.655801967E-01
    0.120790994E+01   -0.125000000E+00    0.162298002E-04    0.119217001E-01   -0.479951006E-03   -0.140603007E-06    0.655801967E-01
    0.120790994E+01   -0.125000000E+00    0.168307997E-04    0.123623004E-01   -0.497861998E-03   -0.151291005E-06    0.655801967E-01
    0.120790994E+01   -0.125000000E+00    0.174386005E-04    0.128078004E-01   -0.515986001E-03   -0.162500996E-06    0.655801967E-01
    0.120790994E+01   -0.125000000E+00    0.180534007E-04    0.132585000E-01   -0.534330029E-03   -0.174286995E-06    0.655801967E-01
    0.120790994E+01   -0.125000000E+00    0.186757006E-04    0.137144001E-01   -0.552901009E-03   -0.186612994E-06    0.655801967E-01
    0.120790994E+01   -0.125000000E+00    0.193055002E-04    0.141757997E-01   -0.571708020E-03   -0.199492007E-06    0.655801967E-01
    0.120790994E+01   -0.125000000E+00    0.199431997E-04    0.146428002E-01   -0.590758980E-03   -0.212977000E-06    0.655801967E-01
    0.120790994E+01   -0.125000000E+00    0.205889992E-04    0.151156001E-01   -0.610059011E-03   -0.227092997E-06    0.655801967E-01
    0.120790994E+01   -0.125000000E+00    0.209138998E-04    0.153534999E-01   -0.619773986E-03   -0.234311997E-06    0.655801967E-01
    0.120790994E+01   -0.125000000E+00    0.212432005E-04    0.155944005E-01   -0.629618997E-03   -0.241886994E-06    0.655801967E-01
    0.120790994E+01   -0.125000000E+00    0.219060003E-04    0.160793997E-01   -0.649444992E-03   -0.257359005E-06    0.655801967E-01
    0.120790994E+01   -0.125000000E+00    0.225777003E-04    0.165707003E-01   -0.669545028E-03   -0.273532010E-06    0.655801967E-01
    0.120790994E+01   -0.125000000E+00    0.229157995E-04    0.168180000E-01   -0.679665012E-03   -0.281808013E-06    0.655801967E-01
    0.120790994E+01   -0.125000000E+00    0.232586008E-04    0.170684997E-01   -0.689927023E-03   -0.290436987E-06    0.655801967E-01
    0.120790994E+01   -0.125000000E+00    0.239490000E-04    0.175730996E-01   -0.710599998E-03   -0.308101988E-06    0.655801967E-01
    0.120790994E+01   -0.125000000E+00    0.246490999E-04    0.180845000E-01   -0.731570995E-03   -0.326551998E-06    0.655801967E-01
    0.120790994E+01   -0.125000000E+00    0.253592007E-04    0.186030008E-01   -0.752847991E-03   -0.345800004E-06    0.655801967E-01
    0.120790994E+01   -0.125000000E+00    0.260796005E-04    0.191287007E-01   -0.774440006E-03   -0.365924990E-06    0.655801967E-01
    0.120790994E+01   -0.125000000E+00    0.268106996E-04    0.196618997E-01   -0.796355016E-03   -0.386935994E-06    0.655801967E-01
    0.120790994E+01   -0.125000000E+00    0.275527000E-04    0.202027001E-01   -0.818600005E-03   -0.408863997E-06    0.655801967E-01
    0.120790994E+01   -0.125000000E+00    0.283057998E-04    0.207512006E-01   -0.841183995E-03   -0.431748987E-06    0.655801967E-01
    0.120790994E+01   -0.125000000E+00    0.290704993E-04    0.213078000E-01   -0.864116009E-03   -0.455627003E-06    0.655801967E-01
    0.120790994E+01   -0.125000000E+00    0.298470004E-04    0.218725000E-01   -0.887402974E-03   -0.480539995E-06    0.655801967E-01
    0.120790994E+01   -0.125000000E+00    0.306356997E-04    0.224454999E-01   -0.911052979E-03   -0.506526021E-06    0.655801967E-01
    0.120790994E+01   -0.125000000E+00    0.310331016E-04    0.227341000E-01   -0.922970008E-03   -0.519799016E-06    0.655801967E-01
    0.120790994E+01   -0.125000000E+00    0.314368008E-04    0.230269991E-01   -0.935074990E-03   -0.533629986E-06    0.655801967E-01
    0.120790994E+01   -0.125000000E+00    0.322507003E-04    0.236172005E-01   -0.959475990E-03   -0.561894979E-06    0.655801967E-01
    0.120790994E+01   -0.125000000E+00    0.326609006E-04    0.239144992E-01   -0.971772999E-03   -0.576327977E-06    0.655801967E-01
    0.120790994E+01   -0.125000000E+00    0.330777002E-04    0.242162999E-01   -0.984265003E-03   -0.591368007E-06    0.655801967E-01
    0.120790994E+01   -0.125000000E+00    0.339182006E-04    0.248243008E-01   -0.100944995E-02   -0.622096024E-06    0.655801967E-01
    0.120790994E+01   -0.125000000E+00    0.343417996E-04    0.251305997E-01   -0.102214003E-02   -0.637782989E-06    0.655801967E-01
    0.120790994E+01   -0.125000000E+00    0.347724999E-04    0.254414994E-01   -0.103504001E-02   -0.654128996E-06    0.655801967E-01
    0.120790994E+01   -0.125000000E+00    0.356409000E-04    0.260681007E-01   -0.106102997E-02   -0.687517002E-06    0.655801967E-01
    0.120790994E+01   -0.125000000E+00    0.360787017E-04    0.263836999E-01   -0.107412995E-02   -0.704559000E-06    0.655801967E-01
    0.120790994E+01   -0.125000000E+00    0.365238011E-04    0.267041009E-01   -0.108744996E-02   -0.722315008E-06    0.655801967E-01
    0.120790994E+01   -0.125000000E+00    0.374215997E-04    0.273496993E-01   -0.111427996E-02   -0.758577016E-06    0.655801967E-01
    0.120790994E+01   -0.125000000E+00    0.383344996E-04    0.280051008E-01   -0.114155002E-02   -0.796362997E-06    0.655801967E-01
    0.120790994E+01   -0.125000000E+00    0.392631009E-04    0.286702998E-01   -0.116926001E-02   -0.835727974E-06    0.655801967E-01
    0.120790994E+01   -0.125000000E+00    0.397313997E-04    0.290054008E-01   -0.118321995E-02   -0.855813994E-06    0.655801967E-01
    0.120790994E+01   -0.125000000E+00    0.402076985E-04    0.293454993E-01   -0.119741005E-02   -0.876739023E-06    0.655801967E-01
    0.120790994E+01   -0.125000000E+00    0.411686015E-04    0.300309006E-01   -0.122601003E-02   -0.919454976E-06    0.655801967E-01
    0.120790994E+01   -0.125000000E+00    0.416531984E-04    0.303761009E-01   -0.124042004E-02   -0.941246014E-06    0.655801967E-01
    0.120790994E+01   -0.125000000E+00    0.421463010E-04    0.307263993E-01   -0.125505996E-02   -0.963942966E-06    0.655801967E-01
    0.120790994E+01   -0.125000000E+00    0.431410990E-04    0.314322002E-01   -0.128457998E-02   -0.101027001E-05    0.655801967E-01
    0.120790994E+01   -0.125000000E+00    0.441533994E-04    0.321483016E-01   -0.131455006E-02   -0.105850995E-05    0.655801967E-01
    0.120790994E+01   -0.125000000E+00    0.451837004E-04    0.328749008E-01   -0.134498998E-02   -0.110871997E-05    0.655801967E-01
    0.120790994E+01   -0.125000000E+00    0.462323987E-04    0.336118005E-01   -0.137590000E-02   -0.116099000E-05    0.655800998E-01
    0.120790994E+01   -0.125000000E+00    0.472999018E-04    0.343592018E-01   -0.140727998E-02   -0.121538005E-05    0.655800998E-01
    0.120790994E+01   -0.125000000E+00    0.483865988E-04    0.351168998E-01   -0.143913005E-02   -0.127198996E-05    0.655800998E-01
    0.120790994E+01   -0.125000000E+00    0.494931010E-04    0.358850993E-01   -0.147144997E-02   -0.133087997E-05    0.655800998E-01
    0.120790994E+01   -0.125000000E+00    0.506196011E-04    0.366635993E-01   -0.150423998E-02   -0.139214001E-05    0.655800998E-01
    0.120790994E+01   -0.125000000E+00    0.517668013E-04    0.374522991E-01   -0.153749995E-02   -0.145585000E-05    0.655800998E-01
    0.120790994E+01   -0.125000000E+00    0.529350000E-04    0.382510982E-01   -0.157122000E-02   -0.152208997E-05    0.655800998E-01
    0.120790994E+01   -0.125000000E+00    0.541246991E-04    0.390598998E-01   -0.160540000E-02   -0.159094998E-05    0.655800998E-01
    0.120790994E+01   -0.125000000E+00    0.553364007E-04    0.398784988E-01   -0.164002995E-02   -0.166252005E-05    0.655800998E-01
    0.120790994E+01   -0.125000000E+00    0.565707014E-04    0.407067016E-01   -0.167510996E-02   -0.173689000E-05    0.655800998E-01
    0.120790994E+01   -0.125000000E+00    0.578280015E-04    0.415440984E-01   -0.171062001E-02   -0.181413998E-05    0.655800998E-01
    0.120790994E+01   -0.125000000E+00    0.591087009E-04    0.423905999E-01   -0.174655998E-02   -0.189437003E-05    0.655800998E-01
    0.120790994E+01   -0.125000000E+00    0.597551007E-04    0.428160988E-01   -0.176462997E-02   -0.193523010E-05    0.655800998E-01
    0.120790994E+01   -0.125000000E+00    0.604136003E-04    0.432457998E-01   -0.178290997E-02   -0.197767008E-05    0.655800998E-01
    0.120790994E+01   -0.125000000E+00    0.617429978E-04    0.441092998E-01   -0.181964994E-02   -0.206413006E-05    0.655800998E-01
    0.120790994E+01   -0.125000000E+00    0.624138993E-04    0.445430018E-01   -0.183812005E-02   -0.210815006E-05    0.655800030E-01
    0.120790994E+01   -0.125000000E+00    0.630974973E-04    0.449806005E-01   -0.185678003E-02   -0.215383989E-05    0.655800030E-01
    0.120790994E+01   -0.125000000E+00    0.644777028E-04    0.458594002E-01   -0.189426006E-02   -0.224689006E-05    0.655800030E-01
    0.120790994E+01   -0.125000000E+00    0.651743030E-04    0.463006012E-01   -0.191309000E-02   -0.229424995E-05    0.655800030E-01
    0.120790994E+01   -0.125000000E+00    0.658841018E-04    0.467450991E-01   -0.193209003E-02   -0.234337995E-05    0.655800030E-01
    0.120790994E+01   -0.125000000E+00    0.673172981E-04    0.476372018E-01   -0.197022990E-02   -0.244339003E-05    0.655800030E-01
    0.120790994E+01   -0.125000000E+00    0.680407029E-04    0.480847992E-01   -0.198937999E-02   -0.249427990E-05    0.655800030E-01
    0.120790994E+01   -0.125000000E+00    0.687779029E-04    0.485350005E-01   -0.200866000E-02   -0.254701990E-05    0.655800030E-01
    0.120790994E+01   -0.125000000E+00    0.702664984E-04    0.494379997E-01   -0.204735994E-02   -0.265436006E-05    0.655800030E-01
    0.120790994E+01   -0.125000000E+00    0.717837029E-04    0.503453016E-01   -0.208629994E-02   -0.276549008E-05    0.655800030E-01
    0.120790994E+01   -0.125000000E+00    0.733299967E-04    0.512563996E-01   -0.212544994E-02   -0.288049000E-05    0.655800030E-01
    0.120790994E+01   -0.125000000E+00    0.749062019E-04    0.521703996E-01   -0.216475991E-02   -0.299946009E-05    0.655798987E-01
    0.120790994E+01   -0.125000000E+00    0.757019006E-04    0.526279993E-01   -0.218445994E-02   -0.305996991E-05    0.655798987E-01
    0.120790994E+01   -0.125000000E+00    0.765129007E-04    0.530865006E-01   -0.220422004E-02   -0.312247994E-05    0.655798987E-01
    0.120790994E+01   -0.125000000E+00    0.781506969E-04    0.540038012E-01   -0.224379008E-02   -0.324962002E-05    0.655798987E-01
    0.120790994E+01   -0.125000000E+00    0.789773985E-04    0.544628017E-01   -0.226358999E-02   -0.331426008E-05    0.655798987E-01
    0.120790994E+01   -0.125000000E+00    0.798202018E-04    0.549216010E-01   -0.228341995E-02   -0.338096993E-05    0.655798987E-01
    0.120790994E+01   -0.125000000E+00    0.815223029E-04    0.558389984E-01   -0.232308009E-02   -0.351659992E-05    0.655798987E-01
    0.120790994E+01   -0.125000000E+00    0.832575024E-04    0.567548983E-01   -0.236272998E-02   -0.365658002E-05    0.655798987E-01
    0.120790994E+01   -0.125000000E+00    0.850264987E-04    0.576686002E-01   -0.240233005E-02   -0.380099004E-05    0.655798018E-01
    0.120790994E+01   -0.125000000E+00    0.868302013E-04    0.585790984E-01   -0.244184001E-02   -0.394989001E-05    0.655798018E-01
    0.120790994E+01   -0.125000000E+00    0.886691996E-04    0.594853982E-01   -0.248122006E-02   -0.410334997E-05    0.655798018E-01
    0.120790994E+01   -0.125000000E+00    0.905441993E-04    0.603866987E-01   -0.252041989E-02   -0.426143015E-05    0.655798018E-01
    0.120790994E+01   -0.125000000E+00    0.914908014E-04    0.608359017E-01   -0.253997999E-02   -0.434161984E-05    0.655796975E-01
    0.120790994E+01   -0.125000000E+00    0.924561027E-04    0.612820014E-01   -0.255941995E-02   -0.442416012E-05    0.655796975E-01
    0.120790994E+01   -0.125000000E+00    0.944056010E-04    0.621705018E-01   -0.259816996E-02   -0.459167995E-05    0.655796975E-01
    0.120790994E+01   -0.125000000E+00    0.953897979E-04    0.626128986E-01   -0.261748000E-02   -0.467665996E-05    0.655796975E-01
    0.120790994E+01   -0.125000000E+00    0.963933999E-04    0.630512983E-01   -0.263664010E-02   -0.476401010E-05    0.655796975E-01
    0.120790994E+01   -0.125000000E+00    0.984205035E-04    0.639237016E-01   -0.267477008E-02   -0.494121014E-05    0.655796006E-01
    0.120790994E+01   -0.125000000E+00    0.100488003E-03    0.647867024E-01   -0.271255989E-02   -0.512333008E-05    0.655796006E-01
    0.120790994E+01   -0.125000000E+00    0.102596001E-03    0.656398982E-01   -0.274994993E-02   -0.531039996E-05    0.655796006E-01
    0.120790994E+01   -0.125000000E+00    0.104744999E-03    0.664822981E-01   -0.278690993E-02   -0.550254981E-05    0.655794963E-01
    0.120790994E+01   -0.125000000E+00    0.106938001E-03    0.673134998E-01   -0.282343011E-02   -0.569981012E-05    0.655794963E-01
    0.120790994E+01   -0.125000000E+00    0.109173998E-03    0.681328997E-01   -0.285946997E-02   -0.590223999E-05    0.655794963E-01
    0.120790994E+01   -0.125000000E+00    0.111453999E-03    0.689399987E-01   -0.289501995E-02   -0.610989991E-05    0.655793995E-01
    0.120790994E+01   -0.125000000E+00    0.112604997E-03    0.693403035E-01   -0.291265990E-02   -0.621502022E-05    0.655793995E-01
    0.120790994E+01   -0.125000000E+00    0.113779002E-03    0.697342977E-01   -0.293004001E-02   -0.632280989E-05    0.655793995E-01
    0.120790994E+01   -0.125000000E+00    0.116151001E-03    0.705154017E-01   -0.296452991E-02   -0.654111000E-05    0.655793026E-01
    0.120790994E+01   -0.125000000E+00    0.118570002E-03    0.712831989E-01   -0.299846008E-02   -0.676488980E-05    0.655793026E-01
    0.120790994E+01   -0.125000000E+00    0.119791999E-03    0.716637000E-01   -0.301528000E-02   -0.687816009E-05    0.655791983E-01
    0.120790994E+01   -0.125000000E+00    0.121038000E-03    0.720373020E-01   -0.303183007E-02   -0.699416978E-05    0.655791983E-01
    0.120790994E+01   -0.125000000E+00    0.123553997E-03    0.727775991E-01   -0.306462008E-02   -0.722905998E-05    0.655791983E-01
    0.120790994E+01   -0.125000000E+00    0.126120998E-03    0.735040009E-01   -0.309683010E-02   -0.746963997E-05    0.655791014E-01
    0.120790994E+01   -0.125000000E+00    0.128739004E-03    0.742162988E-01   -0.312845991E-02   -0.771599025E-05    0.655789971E-01
    0.120790994E+01   -0.125000000E+00    0.131409994E-03    0.749147013E-01   -0.315949996E-02   -0.796821041E-05    0.655789971E-01
    0.120790994E+01   -0.125000000E+00    0.134133996E-03    0.755990967E-01   -0.318995002E-02   -0.822640959E-05    0.655789003E-01
    0.120790994E+01   -0.125000000E+00    0.136912000E-03    0.762697011E-01   -0.321982009E-02   -0.849068965E-05    0.655788034E-01
    0.120790994E+01   -0.125000000E+00    0.138314994E-03    0.766014978E-01   -0.323460996E-02   -0.862434990E-05    0.655788034E-01
    0.120790994E+01   -0.125000000E+00    0.139747004E-03    0.769264996E-01   -0.324911997E-02   -0.876115973E-05    0.655786991E-01
    0.120790994E+01   -0.125000000E+00    0.142638004E-03    0.775699019E-01   -0.327784009E-02   -0.903794989E-05    0.655786991E-01
    0.120790994E+01   -0.125000000E+00    0.144096994E-03    0.778881982E-01   -0.329204998E-02   -0.917792022E-05    0.655786023E-01
    0.120790994E+01   -0.125000000E+00    0.145586993E-03    0.781999975E-01   -0.330599002E-02   -0.932117018E-05    0.655786023E-01
    0.120790994E+01   -0.125000000E+00    0.148595005E-03    0.788170025E-01   -0.333358999E-02   -0.961096976E-05    0.655784979E-01
    0.120790994E+01   -0.125000000E+00    0.151664004E-03    0.794212967E-01   -0.336065004E-02   -0.990746957E-05    0.655784011E-01
    0.120790994E+01   -0.125000000E+00    0.154794005E-03    0.800132006E-01   -0.338717992E-02   -0.102107997E-04    0.655782968E-01
    0.120790994E+01   -0.125000000E+00    0.157988005E-03    0.805929974E-01   -0.341318990E-02   -0.105212002E-04    0.655781999E-01
    0.120790994E+01   -0.125000000E+00    0.161245000E-03    0.811609030E-01   -0.343869999E-02   -0.108387003E-04    0.655781031E-01
    0.120790994E+01   -0.125000000E+00    0.164568002E-03    0.817174986E-01   -0.346371997E-02   -0.111634999E-04    0.655779988E-01
    0.120790994E+01   -0.125000000E+00    0.167959006E-03    0.822630003E-01   -0.348826009E-02   -0.114958002E-04    0.655779019E-01
    0.120790994E+01   -0.125000000E+00    0.171417007E-03    0.827978998E-01   -0.351234991E-02   -0.118358003E-04    0.655777976E-01
    0.120790994E+01   -0.125000000E+00    0.174945002E-03    0.833223984E-01   -0.353598991E-02   -0.121836001E-04    0.655775964E-01
    0.120790994E+01   -0.125000000E+00    0.178545000E-03    0.838370994E-01   -0.355921011E-02   -0.125394999E-04    0.655774996E-01
    0.120790994E+01   -0.125000000E+00    0.182217002E-03    0.843421966E-01   -0.358201005E-02   -0.129035998E-04    0.655774027E-01
    0.120790994E+01   -0.125000000E+00    0.185962999E-03    0.848380998E-01   -0.360442000E-02   -0.132760997E-04    0.655772016E-01
    0.120790994E+01   -0.125000000E+00    0.189785002E-03    0.853253007E-01   -0.362645998E-02   -0.136571998E-04    0.655770972E-01
    0.120790994E+01   -0.125000000E+00    0.191714993E-03    0.855667964E-01   -0.363737997E-02   -0.138500000E-04    0.655770004E-01
    0.120790994E+01   -0.125000000E+00    0.193683998E-03    0.858040973E-01   -0.364811998E-02   -0.140472002E-04    0.655770004E-01
    0.120790994E+01   -0.125000000E+00    0.197661997E-03    0.862748995E-01   -0.366945006E-02   -0.144463002E-04    0.655767992E-01
    0.120790994E+01   -0.125000000E+00    0.199670001E-03    0.865082964E-01   -0.368002011E-02   -0.146480998E-04    0.655767024E-01
    0.120790994E+01   -0.125000000E+00    0.201720002E-03    0.867379010E-01   -0.369042996E-02   -0.148546997E-04    0.655767024E-01
    0.120790994E+01   -0.125000000E+00    0.205859993E-03    0.871936977E-01   -0.371109997E-02   -0.152726006E-04    0.655765012E-01
    0.120790994E+01   -0.125000000E+00    0.210084007E-03    0.876424015E-01   -0.373147009E-02   -0.157002996E-04    0.655763000E-01
    0.120790994E+01   -0.125000000E+00    0.214393993E-03    0.880844966E-01   -0.375155010E-02   -0.161378994E-04    0.655762032E-01
    0.120790994E+01   -0.125000000E+00    0.216569999E-03    0.883039013E-01   -0.376151991E-02   -0.163592995E-04    0.655760989E-01
    0.120790994E+01   -0.125000000E+00    0.218789995E-03    0.885201991E-01   -0.377135002E-02   -0.165859001E-04    0.655760020E-01
    0.120790994E+01   -0.125000000E+00    0.223276002E-03    0.889500007E-01   -0.379089010E-02   -0.170444000E-04    0.655758008E-01
    0.120790994E+01   -0.125000000E+00    0.225541007E-03    0.891633034E-01   -0.380060007E-02   -0.172762993E-04    0.655758008E-01
    0.120790994E+01   -0.125000000E+00    0.227851997E-03    0.893739015E-01   -0.381017988E-02   -0.175135992E-04    0.655756965E-01
    0.120790994E+01   -0.125000000E+00    0.232520993E-03    0.897924975E-01   -0.382923009E-02   -0.179939998E-04    0.655755028E-01
    0.120790994E+01   -0.125000000E+00    0.234879000E-03    0.900003985E-01   -0.383870001E-02   -0.182369004E-04    0.655753985E-01
    0.120790994E+01   -0.125000000E+00    0.237285000E-03    0.902058035E-01   -0.384806003E-02   -0.184855999E-04    0.655753017E-01
    0.120790994E+01   -0.125000000E+00    0.242145004E-03    0.906142965E-01   -0.386666996E-02   -0.189889997E-04    0.655751005E-01
    0.120790994E+01   -0.125000000E+00    0.244600000E-03    0.908173025E-01   -0.387592008E-02   -0.192436000E-04    0.655750036E-01
    0.120790994E+01   -0.125000000E+00    0.247104006E-03    0.910181031E-01   -0.388508011E-02   -0.195041994E-04    0.655748993E-01
    0.120790994E+01   -0.125000000E+00    0.252163009E-03    0.914174989E-01   -0.390329002E-02   -0.200316008E-04    0.655746981E-01
    0.120790994E+01   -0.125000000E+00    0.257325009E-03    0.918127969E-01   -0.392132020E-02   -0.205716005E-04    0.655744970E-01
    0.120790994E+01   -0.125000000E+00    0.259932014E-03    0.920094028E-01   -0.393030001E-02   -0.208448000E-04    0.655744001E-01
    0.120790994E+01   -0.125000000E+00    0.262591988E-03    0.922041014E-01   -0.393918017E-02   -0.211245006E-04    0.655743033E-01
    0.120790994E+01   -0.125000000E+00    0.267964991E-03    0.925917029E-01   -0.395687018E-02   -0.216904991E-04    0.655741021E-01
    0.120790994E+01   -0.125000000E+00    0.270679011E-03    0.927845985E-01   -0.396568002E-02   -0.219768008E-04    0.655739978E-01
    0.120790994E+01   -0.125000000E+00    0.273446989E-03    0.929758027E-01   -0.397440977E-02   -0.222700000E-04    0.655739009E-01
    0.120790994E+01   -0.125000000E+00    0.279041007E-03    0.933564976E-01   -0.399179990E-02   -0.228633999E-04    0.655736998E-01
    0.120790994E+01   -0.125000000E+00    0.284748006E-03    0.937341005E-01   -0.400904985E-02   -0.234709005E-04    0.655734017E-01
    0.120790994E+01   -0.125000000E+00    0.290571013E-03    0.941087976E-01   -0.402616011E-02   -0.240930003E-04    0.655732006E-01
    0.120790994E+01   -0.125000000E+00    0.296512007E-03    0.944805965E-01   -0.404315023E-02   -0.247300995E-04    0.655729994E-01
    0.120790994E+01   -0.125000000E+00    0.302573986E-03    0.948498026E-01   -0.406000996E-02   -0.253824000E-04    0.655727014E-01
    0.120790994E+01   -0.125000000E+00    0.305635011E-03    0.950338021E-01   -0.406841980E-02   -0.257123993E-04    0.655725971E-01
    0.120790994E+01   -0.125000000E+00    0.308758987E-03    0.952166021E-01   -0.407677004E-02   -0.260503002E-04    0.655725002E-01
    0.120790994E+01   -0.125000000E+00    0.315068988E-03    0.955808982E-01   -0.409340998E-02   -0.267344003E-04    0.655722991E-01
    0.120790994E+01   -0.125000000E+00    0.318256003E-03    0.957626030E-01   -0.410170993E-02   -0.270804994E-04    0.655720979E-01
    0.120790994E+01   -0.125000000E+00    0.321506988E-03    0.959431007E-01   -0.410994980E-02   -0.274349004E-04    0.655720010E-01
    0.120790994E+01   -0.125000000E+00    0.328077003E-03    0.963032022E-01   -0.412640022E-02   -0.281523007E-04    0.655717999E-01
    0.120790994E+01   -0.125000000E+00    0.334779994E-03    0.966613963E-01   -0.414275005E-02   -0.288868996E-04    0.655715019E-01
    0.120790994E+01   -0.125000000E+00    0.341617997E-03    0.970176980E-01   -0.415901001E-02   -0.296392991E-04    0.655711964E-01
    0.120790994E+01   -0.125000000E+00    0.348595990E-03    0.973723009E-01   -0.417518988E-02   -0.304097994E-04    0.655708984E-01
    0.120790994E+01   -0.125000000E+00    0.355716009E-03    0.977253020E-01   -0.419127988E-02   -0.311988988E-04    0.655706972E-01
    0.120790994E+01   -0.125000000E+00    0.362980005E-03    0.980767980E-01   -0.420730002E-02   -0.320071013E-04    0.655703992E-01
    0.120790994E+01   -0.125000000E+00    0.370393012E-03    0.984267965E-01   -0.422324985E-02   -0.328349015E-04    0.655701011E-01
    0.120790994E+01   -0.125000000E+00    0.377955003E-03    0.987754986E-01   -0.423912006E-02   -0.336826015E-04    0.655698031E-01
    0.120790994E+01   -0.125000000E+00    0.385671999E-03    0.991228968E-01   -0.425491994E-02   -0.345508997E-04    0.655694976E-01
    0.120790994E+01   -0.125000000E+00    0.393544993E-03    0.994691998E-01   -0.427066023E-02   -0.354402000E-04    0.655691996E-01
    0.120790994E+01   -0.125000000E+00    0.401578000E-03    0.998143032E-01   -0.428633997E-02   -0.363510990E-04    0.655689016E-01
    0.120790994E+01   -0.125000000E+00    0.405636005E-03    0.999865979E-01   -0.429415982E-02   -0.368120018E-04    0.655687004E-01
    0.120790994E+01   -0.125000000E+00    0.409775006E-03    0.100157998E+00   -0.430194987E-02   -0.372840004E-04    0.655684993E-01
    0.120790994E+01   -0.125000000E+00    0.418139010E-03    0.100501999E+00   -0.431750016E-02   -0.382395010E-04    0.655682012E-01
    0.120790994E+01   -0.125000000E+00    0.422362995E-03    0.100672997E+00   -0.432525994E-02   -0.387229993E-04    0.655680001E-01
    0.120790994E+01   -0.125000000E+00    0.426671992E-03    0.100844003E+00   -0.433300016E-02   -0.392182010E-04    0.655679032E-01
    0.120790994E+01   -0.125000000E+00    0.430982007E-03    0.101015002E+00   -0.434073014E-02   -0.397133990E-04    0.655677020E-01
    0.120790994E+01   -0.125000000E+00    0.435379014E-03    0.101185001E+00   -0.434842985E-02   -0.402205987E-04    0.655675009E-01
    0.120790994E+01   -0.125000000E+00    0.444264006E-03    0.101526000E+00   -0.436381018E-02   -0.412472982E-04    0.655672029E-01
    0.120790994E+01   -0.125000000E+00    0.448750012E-03    0.101695999E+00   -0.437148986E-02   -0.417668016E-04    0.655670017E-01
    0.120790994E+01   -0.125000000E+00    0.453327986E-03    0.101865999E+00   -0.437914021E-02   -0.422988996E-04    0.655668005E-01
    0.120790994E+01   -0.125000000E+00    0.462577998E-03    0.102205001E+00   -0.439441018E-02   -0.433761015E-04    0.655663982E-01
    0.120790994E+01   -0.125000000E+00    0.472015003E-03    0.102542996E+00   -0.440962007E-02   -0.444795005E-04    0.655661002E-01
    0.120790994E+01   -0.125000000E+00    0.481644995E-03    0.102880999E+00   -0.442478992E-02   -0.456095986E-04    0.655656978E-01
    0.120790994E+01   -0.125000000E+00    0.486508012E-03    0.103050001E+00   -0.443236018E-02   -0.461814016E-04    0.655654967E-01