VARIABLES = "X","Y","Z","cp"
ZONE T="USM3D, grid 1"
    0.990420878E+00   -0.500000000E+00    0.458277017E-01   -0.524160743E+00
    0.990059614E+00   -0.492187500E+00    0.458277017E-01   -0.524063051E+00
    0.988978028E+00   -0.484375000E+00    0.458277017E-01   -0.523836315E+00
    0.987182558E+00   -0.476562500E+00    0.458277017E-01   -0.523418605E+00
    0.984684110E+00   -0.468750000E+00    0.458277017E-01   -0.522812784E+00
    0.981497586E+00   -0.460937500E+00    0.458277017E-01   -0.521998048E+00
    0.977642000E+00   -0.453125000E+00    0.458277017E-01   -0.520951748E+00
    0.973140359E+00   -0.445312500E+00    0.458277017E-01   -0.519650221E+00
    0.968019307E+00   -0.437500000E+00    0.458277017E-01   -0.518071294E+00
    0.962309003E+00   -0.429687500E+00    0.458277017E-01   -0.516196311E+00
    0.956042945E+00   -0.421875000E+00    0.458277017E-01   -0.514012218E+00
    0.949257493E+00   -0.414062500E+00    0.458277017E-01   -0.511521697E+00
    0.941991925E+00   -0.406250000E+00    0.458277017E-01   -0.508702338E+00
    0.934287667E+00   -0.398437500E+00    0.458277017E-01   -0.505586863E+00
    0.926188290E+00   -0.390625000E+00    0.458277017E-01   -0.502204418E+00
    0.917739153E+00   -0.382812500E+00    0.458277017E-01   -0.498598576E+00
    0.908986867E+00   -0.375000000E+00    0.458277017E-01   -0.494794279E+00
    0.899979055E+00   -0.367187500E+00    0.458277017E-01   -0.490746856E+00
    0.890763938E+00   -0.359375000E+00    0.458277017E-01   -0.486510456E+00
    0.881390095E+00   -0.351562500E+00    0.458277017E-01   -0.482193977E+00
    0.871905744E+00   -0.343750000E+00    0.458277017E-01   -0.477775484E+00
    0.862358868E+00   -0.335937500E+00    0.458277017E-01   -0.473470420E+00
    0.852796495E+00   -0.328125000E+00    0.458277017E-01   -0.469188422E+00
    0.843264341E+00   -0.320312500E+00    0.458277017E-01   -0.464964747E+00
    0.833806872E+00   -0.312500000E+00    0.458277017E-01   -0.460837066E+00
    0.824466407E+00   -0.304687500E+00    0.458277017E-01   -0.456716835E+00
    0.815283418E+00   -0.296875000E+00    0.458277017E-01   -0.452888846E+00
    0.806295812E+00   -0.289062500E+00    0.458277017E-01   -0.449230999E+00
    0.797538936E+00   -0.281250000E+00    0.458277017E-01   -0.445766032E+00
    0.789045155E+00   -0.273437500E+00    0.458277017E-01   -0.442511618E+00
    0.780843973E+00   -0.265625000E+00    0.458277017E-01   -0.439524919E+00
    0.772961557E+00   -0.257812500E+00    0.458277017E-01   -0.436761826E+00
    0.765420854E+00   -0.250000000E+00    0.458277017E-01   -0.434268266E+00
    0.758241296E+00   -0.242187500E+00    0.458277017E-01   -0.432064831E+00
    0.751438856E+00   -0.234375000E+00    0.458277017E-01   -0.430171758E+00
    0.745025992E+00   -0.226562500E+00    0.458277017E-01   -0.428608179E+00
    0.739011824E+00   -0.218750000E+00    0.458277017E-01   -0.427391380E+00
    0.733401775E+00   -0.210937500E+00    0.458277017E-01   -0.426535994E+00
    0.728198052E+00   -0.203125000E+00    0.458277017E-01   -0.426053107E+00
    0.723399460E+00   -0.195312500E+00    0.458277017E-01   -0.425949484E+00
    0.719001830E+00   -0.187500000E+00    0.458277017E-01   -0.426226944E+00
    0.714997828E+00   -0.179687500E+00    0.458277017E-01   -0.426881939E+00
    0.711377442E+00   -0.171875000E+00    0.458277017E-01   -0.427905113E+00
    0.708128035E+00   -0.164062500E+00    0.458277017E-01   -0.429281324E+00
    0.705234706E+00   -0.156250000E+00    0.458277017E-01   -0.430989623E+00
    0.702680290E+00   -0.148437500E+00    0.458277017E-01   -0.433003426E+00
    0.700445950E+00   -0.140625000E+00    0.458277017E-01   -0.435253620E+00
    0.698511362E+00   -0.132812500E+00    0.458277017E-01   -0.437786430E+00
    0.696854830E+00   -0.125000000E+00    0.458277017E-01   -0.440515250E+00
    0.695453823E+00   -0.117187500E+00    0.458277017E-01   -0.443396986E+00
    0.694285154E+00   -0.109375000E+00    0.458277017E-01   -0.446385533E+00
    0.693325400E+00   -0.101562500E+00    0.458277017E-01   -0.449433356E+00
    0.692551017E+00   -0.937500000E-01    0.458277017E-01   -0.452492148E+00
    0.691938937E+00   -0.859375000E-01    0.458277017E-01   -0.455512404E+00
    0.691466570E+00   -0.781250000E-01    0.458277017E-01   -0.458507925E+00
    0.691112220E+00   -0.703125000E-01    0.458277017E-01   -0.461296856E+00
    0.690855444E+00   -0.625000000E-01    0.458277017E-01   -0.463912815E+00
    0.690677106E+00   -0.546875000E-01    0.458277017E-01   -0.466316432E+00
    0.690559924E+00   -0.468750000E-01    0.458277017E-01   -0.468472898E+00
    0.690488219E+00   -0.390625000E-01    0.458277017E-01   -0.470351577E+00
    0.690448523E+00   -0.312500000E-01    0.458277017E-01   -0.471926063E+00
    0.690429628E+00   -0.234375000E-01    0.458277017E-01   -0.473172784E+00
    0.690422594E+00   -0.156250000E-01    0.458277017E-01   -0.474075168E+00
    0.690420985E+00   -0.781250000E-02    0.458277017E-01   -0.474694818E+00
    0.690420866E+00    0.000000000E+00    0.458277017E-01   -0.474802881E+00
ZONE T="USM3D, grid 2"
    0.990420878E+00   -0.500000000E+00    0.458277017E-01   -0.522706091E+00
    0.988978028E+00   -0.484375000E+00    0.458277017E-01   -0.522289097E+00
    0.984684110E+00   -0.468750000E+00    0.458277017E-01   -0.521286428E+00
    0.977642000E+00   -0.453125000E+00    0.458277017E-01   -0.519377828E+00
    0.968019307E+00   -0.437500000E+00    0.458277017E-01   -0.516511857E+00
    0.956042945E+00   -0.421875000E+00    0.458277017E-01   -0.512598097E+00
    0.941991925E+00   -0.406250000E+00    0.458277017E-01   -0.507589757E+00
    0.926188290E+00   -0.390625000E+00    0.458277017E-01   -0.501508117E+00
    0.908986867E+00   -0.375000000E+00    0.458277017E-01   -0.494394094E+00
    0.890763938E+00   -0.359375000E+00    0.458277017E-01   -0.486375183E+00
    0.871905744E+00   -0.343750000E+00    0.458277017E-01   -0.477658510E+00
    0.852796495E+00   -0.328125000E+00    0.458277017E-01   -0.469257325E+00
    0.833806872E+00   -0.312500000E+00    0.458277017E-01   -0.460978717E+00
    0.815283418E+00   -0.296875000E+00    0.458277017E-01   -0.452867299E+00
    0.797538936E+00   -0.281250000E+00    0.458277017E-01   -0.445862234E+00
    0.780843973E+00   -0.265625000E+00    0.458277017E-01   -0.439703911E+00
    0.765420854E+00   -0.250000000E+00    0.458277017E-01   -0.434630930E+00
    0.751438856E+00   -0.234375000E+00    0.458277017E-01   -0.430559009E+00
    0.739011824E+00   -0.218750000E+00    0.458277017E-01   -0.427767515E+00
    0.728198052E+00   -0.203125000E+00    0.458277017E-01   -0.426391095E+00
    0.719001830E+00   -0.187500000E+00    0.458277017E-01   -0.426506311E+00
    0.711377442E+00   -0.171875000E+00    0.458277017E-01   -0.428109854E+00
    0.705234706E+00   -0.156250000E+00    0.458277017E-01   -0.431099892E+00
    0.700445950E+00   -0.140625000E+00    0.458277017E-01   -0.435172975E+00
    0.696854830E+00   -0.125000000E+00    0.458277017E-01   -0.440300196E+00
    0.694285154E+00   -0.109375000E+00    0.458277017E-01   -0.446077526E+00
    0.692551017E+00   -0.937500000E-01    0.458277017E-01   -0.452082694E+00
    0.691466570E+00   -0.781250000E-01    0.458277017E-01   -0.458124578E+00
    0.690855444E+00   -0.625000000E-01    0.458277017E-01   -0.463411242E+00
    0.690559924E+00   -0.468750000E-01    0.458277017E-01   -0.467792243E+00
    0.690448523E+00   -0.312500000E-01    0.458277017E-01   -0.471103132E+00
    0.690422594E+00   -0.156250000E-01    0.458277017E-01   -0.473450929E+00
    0.690420866E+00    0.000000000E+00    0.458277017E-01   -0.473864466E+00
ZONE T="USM3D, grid 3"
    0.990420878E+00   -0.500000000E+00    0.458277017E-01   -0.516440630E+00
    0.984684110E+00   -0.468750000E+00    0.458277017E-01   -0.514341831E+00
    0.968019307E+00   -0.437500000E+00    0.458277017E-01   -0.509409308E+00
    0.941991925E+00   -0.406250000E+00    0.458277017E-01   -0.501198411E+00
    0.908986867E+00   -0.375000000E+00    0.458277017E-01   -0.490024418E+00
    0.871905744E+00   -0.343750000E+00    0.458277017E-01   -0.476092815E+00
    0.833806872E+00   -0.312500000E+00    0.458277017E-01   -0.461324304E+00
    0.797538936E+00   -0.281250000E+00    0.458277017E-01   -0.446803659E+00
    0.765420854E+00   -0.250000000E+00    0.458277017E-01   -0.436544597E+00
    0.739011824E+00   -0.218750000E+00    0.458277017E-01   -0.429480106E+00
    0.719001830E+00   -0.187500000E+00    0.458277017E-01   -0.427529335E+00
    0.705234706E+00   -0.156250000E+00    0.458277017E-01   -0.430864632E+00
    0.696854830E+00   -0.125000000E+00    0.458277017E-01   -0.438816845E+00
    0.692551017E+00   -0.937500000E-01    0.458277017E-01   -0.449708909E+00
    0.690855444E+00   -0.625000000E-01    0.458277017E-01   -0.460579127E+00
    0.690448523E+00   -0.312500000E-01    0.458277017E-01   -0.467929870E+00
    0.690420866E+00    0.000000000E+00    0.458277017E-01   -0.469301671E+00
ZONE T="USM3D, grid 4"
    0.990420878E+00   -0.500000000E+00    0.458277017E-01   -0.490540266E+00
    0.968019307E+00   -0.437500000E+00    0.458277017E-01   -0.479456037E+00
    0.908986867E+00   -0.375000000E+00    0.458277017E-01   -0.469837040E+00
    0.833806872E+00   -0.312500000E+00    0.458277017E-01   -0.452190191E+00
    0.765420854E+00   -0.250000000E+00    0.458277017E-01   -0.441201121E+00
    0.719001830E+00   -0.187500000E+00    0.458277017E-01   -0.434948266E+00
    0.696854830E+00   -0.125000000E+00    0.458277017E-01   -0.433311105E+00
    0.690855444E+00   -0.625000000E-01    0.458277017E-01   -0.444096327E+00
    0.690420866E+00    0.000000000E+00    0.458277017E-01   -0.448046535E+00
