VARIABLES = "x","y-y0","u"
ZONE T="x=0.75"
 7.500000000E-01 0.000000000E+00 0.000000000E+00
 7.500000000E-01 4.962086564E-07 4.433805123E-03
 7.500000000E-01 9.916723229E-07 8.869437501E-03
 7.500000000E-01 1.487135933E-06 1.330870204E-02
 7.500000000E-01 1.982599542E-06 1.775340736E-02
 7.500000000E-01 2.478063152E-06 2.220536023E-02
 7.500000000E-01 2.977252052E-06 2.666637115E-02
 7.500000000E-01 3.476440952E-06 3.113825619E-02
 7.500000000E-01 3.975629625E-06 3.562283516E-02
 7.500000000E-01 4.478543815E-06 4.012192786E-02
 7.500000000E-01 4.981458005E-06 4.463734478E-02
 7.500000000E-01 5.488097486E-06 4.917092994E-02
 7.500000000E-01 5.998462257E-06 5.372451618E-02
 7.500000000E-01 6.508827028E-06 5.829993263E-02
 7.500000000E-01 7.022917089E-06 6.289900839E-02
 7.500000000E-01 7.537007150E-06 6.752359122E-02
 7.500000000E-01 8.058547792E-06 7.217551768E-02
 7.500000000E-01 8.580088434E-06 7.685662806E-02
 7.500000000E-01 9.105354366E-06 8.156874031E-02
 7.500000000E-01 9.638070878E-06 8.631369472E-02
 7.500000000E-01 1.017078739E-05 9.109329432E-02
 7.500000000E-01 1.070722919E-05 9.590935707E-02
 7.500000000E-01 1.125112158E-05 1.007636562E-01
 7.500000000E-01 1.179873925E-05 1.056579798E-01
 7.500000000E-01 1.235008222E-05 1.105940491E-01
 7.500000000E-01 1.290515047E-05 1.155735701E-01
 7.500000000E-01 1.346766931E-05 1.205982193E-01
 7.500000000E-01 1.403391343E-05 1.256696135E-01
 7.500000000E-01 1.460760814E-05 1.307893097E-01
 7.500000000E-01 1.518502813E-05 1.359587759E-01
 7.500000000E-01 1.576989962E-05 1.411794275E-01
 7.500000000E-01 1.636222078E-05 1.464525908E-01
 7.500000000E-01 1.696199251E-05 1.517794877E-01
 7.500000000E-01 1.756548954E-05 1.571611762E-01
 7.500000000E-01 1.818016244E-05 1.625985801E-01
 7.500000000E-01 1.879856063E-05 1.680925488E-01
 7.500000000E-01 1.942440940E-05 1.736436784E-01
 7.500000000E-01 2.006143404E-05 1.792523414E-01
 7.500000000E-01 2.070590926E-05 1.849188507E-01
 7.500000000E-01 2.135783507E-05 1.906430870E-01
 7.500000000E-01 2.201721145E-05 1.964248568E-01
 7.500000000E-01 2.268776370E-05 2.022636086E-01
 7.500000000E-01 2.336576654E-05 2.081585079E-01
 7.500000000E-01 2.405494524E-05 2.141084671E-01
 7.500000000E-01 2.475157453E-05 2.201120853E-01
 7.500000000E-01 2.545937969E-05 2.261676192E-01
 7.500000000E-01 2.617836071E-05 2.322730571E-01
 7.500000000E-01 2.690851761E-05 2.384260148E-01
 7.500000000E-01 2.764612509E-05 2.446238101E-01
 7.500000000E-01 2.839863373E-05 2.508635223E-01
 7.500000000E-01 2.916231824E-05 2.571418583E-01
 7.500000000E-01 2.993717862E-05 2.634553313E-01
 7.500000000E-01 3.072321488E-05 2.698001564E-01
 7.500000000E-01 3.152042700E-05 2.761724293E-01
 7.500000000E-01 3.233254029E-05 2.825680375E-01
 7.500000000E-01 3.315955473E-05 2.889827192E-01
 7.500000000E-01 3.399774505E-05 2.954121232E-01
 7.500000000E-01 3.485083653E-05 3.018518686E-01
 7.500000000E-01 3.571882917E-05 3.082976043E-01
 7.500000000E-01 3.659799768E-05 3.147449493E-01
 7.500000000E-01 3.749579264E-05 3.211895823E-01
 7.500000000E-01 3.840848876E-05 3.276273608E-01
 7.500000000E-01 3.933236076E-05 3.340542912E-01
 7.500000000E-01 4.027858449E-05 3.404664993E-01
 7.500000000E-01 4.123598410E-05 3.468602896E-01
 7.500000000E-01 4.221201016E-05 3.532322943E-01
 7.500000000E-01 4.320666267E-05 3.595791757E-01
 7.500000000E-01 4.421621634E-05 3.658980727E-01
 7.500000000E-01 4.524812175E-05 3.721862435E-01
 7.500000000E-01 4.629492832E-05 3.784411550E-01
 7.500000000E-01 4.736036135E-05 3.846606314E-01
 7.500000000E-01 4.844442083E-05 3.908427060E-01
 7.500000000E-01 4.955083205E-05 3.969855905E-01
 7.500000000E-01 5.067586972E-05 4.030877948E-01
 7.500000000E-01 5.182325913E-05 4.091480970E-01
 7.500000000E-01 5.298927499E-05 4.151653647E-01
 7.500000000E-01 5.417764260E-05 4.211387038E-01
 7.500000000E-01 5.538836194E-05 4.270675480E-01
 7.500000000E-01 5.662143303E-05 4.329513013E-01
 7.500000000E-01 5.787685586E-05 4.387919605E-01
 7.500000000E-01 5.915835573E-05 4.445936680E-01
 7.500000000E-01 6.046220733E-05 4.503590167E-01
 7.500000000E-01 6.178840704E-05 4.560880661E-01
 7.500000000E-01 6.314441271E-05 4.617800713E-01
 7.500000000E-01 6.452277012E-05 4.674341977E-01
 7.500000000E-01 6.592720456E-05 4.730498195E-01
 7.500000000E-01 6.736144132E-05 4.786262512E-01
 7.500000000E-01 6.882175512E-05 4.841631055E-01
 7.500000000E-01 7.030814595E-05 4.896597862E-01
 7.500000000E-01 7.182433910E-05 4.951160550E-01
 7.500000000E-01 7.337033458E-05 5.005314946E-01
 7.500000000E-01 7.494613237E-05 5.059059858E-01
 7.500000000E-01 7.655173249E-05 5.112394094E-01
 7.500000000E-01 7.818713493E-05 5.165315866E-01
 7.500000000E-01 7.985606499E-05 5.217825770E-01
 7.500000000E-01 8.155852265E-05 5.269924998E-01
 7.500000000E-01 8.329078264E-05 5.321612358E-01
 7.500000000E-01 8.506029553E-05 5.372892618E-01
 7.500000000E-01 8.686333604E-05 5.423765182E-01
 7.500000000E-01 8.869990415E-05 5.474233627E-01
 7.500000000E-01 9.057745046E-05 5.524300933E-01
 7.500000000E-01 9.248852439E-05 5.573970675E-01
 7.500000000E-01 9.443685121E-05 5.623246431E-01
 7.500000000E-01 9.642243094E-05 5.672132969E-01
 7.500000000E-01 9.844898887E-05 5.720634460E-01
 7.500000000E-01 1.005165250E-04 5.768755078E-01
 7.500000000E-01 1.026250393E-04 5.816500783E-01
 7.500000000E-01 1.047708065E-04 5.863875747E-01
 7.500000000E-01 1.069650025E-04 5.910885930E-01
 7.500000000E-01 1.092001767E-04 5.957537293E-01
 7.500000000E-01 1.114800543E-04 6.003834009E-01
 7.500000000E-01 1.138046355E-04 6.049783826E-01
 7.500000000E-01 1.161739201E-04 6.095390916E-01
 7.500000000E-01 1.185953588E-04 6.140663028E-01
 7.500000000E-01 1.210615010E-04 6.185605526E-01
 7.500000000E-01 1.235760719E-04 6.230224371E-01
 7.500000000E-01 1.261427969E-04 6.274527311E-01
 7.500000000E-01 1.287616760E-04 6.318517923E-01
 7.500000000E-01 1.314289839E-04 6.362204552E-01
 7.500000000E-01 1.341558964E-04 6.405592561E-01
 7.500000000E-01 1.369312376E-04 6.448688507E-01
 7.500000000E-01 1.397661836E-04 6.491499543E-01
 7.500000000E-01 1.426570088E-04 6.534029245E-01
 7.500000000E-01 1.456037135E-04 6.576286554E-01
 7.500000000E-01 1.486137480E-04 6.618275642E-01
 7.500000000E-01 1.516796619E-04 6.660003066E-01
 7.500000000E-01 1.548126311E-04 6.701474190E-01
 7.500000000E-01 1.580052049E-04 6.742695570E-01
 7.500000000E-01 1.612611086E-04 6.783674955E-01
 7.500000000E-01 1.645840675E-04 6.824416518E-01
 7.500000000E-01 1.679740817E-04 6.864932179E-01
 7.500000000E-01 1.714311511E-04 6.905233860E-01
 7.500000000E-01 1.749590010E-04 6.945332289E-01
 7.500000000E-01 1.785576314E-04 6.985234618E-01
 7.500000000E-01 1.822307677E-04 7.024950385E-01
 7.500000000E-01 1.859746844E-04 7.064490318E-01
 7.500000000E-01 1.897968323E-04 7.103855610E-01
 7.500000000E-01 1.936972112E-04 7.143055201E-01
 7.500000000E-01 1.976720960E-04 7.182090282E-01
 7.500000000E-01 2.017326624E-04 7.220964432E-01
 7.500000000E-01 2.058714599E-04 7.259684205E-01
 7.500000000E-01 2.100959391E-04 7.298252583E-01
 7.500000000E-01 2.144023747E-04 7.336673737E-01
 7.500000000E-01 2.188019425E-04 7.374950647E-01
 7.500000000E-01 2.232871921E-04 7.413088083E-01
 7.500000000E-01 2.278618485E-04 7.451090217E-01
 7.500000000E-01 2.325296373E-04 7.488959432E-01
 7.500000000E-01 2.372942836E-04 7.526699305E-01
 7.500000000E-01 2.421557874E-04 7.564315200E-01
 7.500000000E-01 2.471141634E-04 7.601808310E-01
 7.500000000E-01 2.521731076E-04 7.639182806E-01
 7.500000000E-01 2.573326346E-04 7.676443458E-01
 7.500000000E-01 2.626001951E-04 7.713590860E-01
 7.500000000E-01 2.679720637E-04 7.750630379E-01
 7.500000000E-01 2.734556911E-04 7.787564397E-01
 7.500000000E-01 2.790473518E-04 7.824394703E-01
 7.500000000E-01 2.847544965E-04 7.861126065E-01
 7.500000000E-01 2.905771253E-04 7.897761464E-01
 7.500000000E-01 2.965189633E-04 7.934302092E-01
 7.500000000E-01 3.025800106E-04 7.970752716E-01
 7.500000000E-01 3.087639925E-04 8.007114530E-01
 7.500000000E-01 3.150746343E-04 8.043390512E-01
 7.500000000E-01 3.215119359E-04 8.079583049E-01
 7.500000000E-01 3.280796227E-04 8.115696907E-01
 7.500000000E-01 3.347814200E-04 8.151731491E-01
 7.500000000E-01 3.416210529E-04 8.187692165E-01
 7.500000000E-01 3.485985217E-04 8.223578334E-01
 7.500000000E-01 3.557175514E-04 8.259394765E-01
 7.500000000E-01 3.629818675E-04 8.295143247E-01
 7.500000000E-01 3.703951952E-04 8.330827355E-01
 7.500000000E-01 3.779575345E-04 8.366453052E-01
 7.500000000E-01 3.856726107E-04 8.402026296E-01
 7.500000000E-01 3.935478744E-04 8.437551260E-01
 7.500000000E-01 4.015796003E-04 8.473033905E-01
 7.500000000E-01 4.097752389E-04 8.508479595E-01
 7.500000000E-01 4.181385157E-04 8.543896079E-01
 7.500000000E-01 4.266731557E-04 8.579286933E-01
 7.500000000E-01 4.353791592E-04 8.614656329E-01
 7.500000000E-01 4.442639765E-04 8.650007844E-01
 7.500000000E-01 4.533276078E-04 8.685341477E-01
 7.500000000E-01 4.625775036E-04 8.720657229E-01
 7.500000000E-01 4.720136640E-04 8.755957484E-01
 7.500000000E-01 4.816435394E-04 8.791242838E-01
 7.500000000E-01 4.914671299E-04 8.826512694E-01
 7.500000000E-01 5.014918861E-04 8.861768246E-01
 7.500000000E-01 5.117215333E-04 8.897009492E-01
 7.500000000E-01 5.221597967E-04 8.932235837E-01
 7.500000000E-01 5.328104016E-04 8.967448473E-01
 7.500000000E-01 5.436733481E-04 9.002648592E-01
 7.500000000E-01 5.547635374E-04 9.037833810E-01
 7.500000000E-01 5.660772440E-04 9.073006511E-01
 7.500000000E-01 5.776181933E-04 9.108166695E-01
 7.500000000E-01 5.893975613E-04 9.143311381E-01
 7.500000000E-01 6.014153478E-04 9.178444147E-01
 7.500000000E-01 6.136790034E-04 9.213563204E-01
 7.500000000E-01 6.261922535E-04 9.248667359E-01
 7.500000000E-01 6.389588234E-04 9.283757806E-01
 7.500000000E-01 6.519861636E-04 9.318832159E-01
 7.500000000E-01 6.652779994E-04 9.353890419E-01
 7.500000000E-01 6.788380560E-04 9.388932586E-01
 7.500000000E-01 6.926775095E-04 9.423955679E-01
 7.500000000E-01 7.068000850E-04 9.458959103E-01
 7.500000000E-01 7.212057826E-04 9.493941665E-01
 7.500000000E-01 7.359095034E-04 9.528902173E-01
 7.500000000E-01 7.509112475E-04 9.563835859E-01
 7.500000000E-01 7.662147400E-04 9.598744512E-01
 7.500000000E-01 7.818348822E-04 9.633623958E-01
 7.500000000E-01 7.977716741E-04 9.668470621E-01
 7.500000000E-01 8.140288410E-04 9.703284502E-01
 7.500000000E-01 8.306212840E-04 9.738059044E-01
 7.500000000E-01 8.475527284E-04 9.772794843E-01
 7.500000000E-01 8.648268995E-04 9.807485342E-01
 7.500000000E-01 8.824512479E-04 9.842128754E-01
 7.500000000E-01 9.004369495E-04 9.876721501E-01
 7.500000000E-01 9.187877295E-04 9.911257029E-01
 7.500000000E-01 9.375147638E-04 9.945734739E-01
 7.500000000E-01 9.566217777E-04 9.980147481E-01
 7.500000000E-01 9.761162219E-04 1.001448870E+00
 7.500000000E-01 9.960092138E-04 1.004875779E+00
 7.500000000E-01 1.016304595E-03 1.008294702E+00
 7.500000000E-01 1.037017209E-03 1.011705041E+00
 7.500000000E-01 1.058150781E-03 1.015106201E+00
 7.500000000E-01 1.079712762E-03 1.018497705E+00
 7.500000000E-01 1.101718051E-03 1.021878839E+00
 7.500000000E-01 1.124166651E-03 1.025249004E+00
 7.500000000E-01 1.147073461E-03 1.028607368E+00
 7.500000000E-01 1.170449657E-03 1.031953335E+00
 7.500000000E-01 1.194298966E-03 1.035286188E+00
 7.500000000E-01 1.218636287E-03 1.038605213E+00
 7.500000000E-01 1.243469073E-03 1.041909337E+00
 7.500000000E-01 1.268808497E-03 1.045198202E+00
 7.500000000E-01 1.294662012E-03 1.048470616E+00
 7.500000000E-01 1.321040792E-03 1.051725984E+00
 7.500000000E-01 1.347959740E-03 1.054963350E+00
 7.500000000E-01 1.375426305E-03 1.058181763E+00
 7.500000000E-01 1.403451664E-03 1.061380625E+00
 7.500000000E-01 1.432050718E-03 1.064558983E+00
 7.500000000E-01 1.461227192E-03 1.067715764E+00
 7.500000000E-01 1.491003437E-03 1.070850372E+00
 7.500000000E-01 1.521383179E-03 1.073961735E+00
 7.500000000E-01 1.552381320E-03 1.077049017E+00
 7.500000000E-01 1.584012760E-03 1.080111623E+00
 7.500000000E-01 1.616288675E-03 1.083148479E+00
 7.500000000E-01 1.649220241E-03 1.086158872E+00
 7.500000000E-01 1.682822360E-03 1.089142084E+00
 7.500000000E-01 1.717109932E-03 1.092097521E+00
 7.500000000E-01 1.752097858E-03 1.095024467E+00
 7.500000000E-01 1.787797315E-03 1.097922206E+00
 7.500000000E-01 1.824223204E-03 1.100790381E+00
 7.500000000E-01 1.861390425E-03 1.103628397E+00
 7.500000000E-01 1.899313880E-03 1.106436014E+00
 7.500000000E-01 1.938012196E-03 1.109212875E+00
 7.500000000E-01 1.977500273E-03 1.111958504E+00
 7.500000000E-01 2.017789287E-03 1.114673257E+00
 7.500000000E-01 2.058901591E-03 1.117356658E+00
 7.500000000E-01 2.100852085E-03 1.120008707E+00
 7.500000000E-01 2.143655671E-03 1.122629762E+00
 7.500000000E-01 2.187330974E-03 1.125219822E+00
 7.500000000E-01 2.231892897E-03 1.127779365E+00
 7.500000000E-01 2.277367515E-03 1.130308509E+00
 7.500000000E-01 2.323766006E-03 1.132807851E+00
 7.500000000E-01 2.371110721E-03 1.135277867E+00
 7.500000000E-01 2.419420285E-03 1.137719154E+00
 7.500000000E-01 2.468713326E-03 1.140132308E+00
 7.500000000E-01 2.519012196E-03 1.142518282E+00
 7.500000000E-01 2.570335520E-03 1.144877553E+00
 7.500000000E-01 2.622701926E-03 1.147211194E+00
 7.500000000E-01 2.676137490E-03 1.149519920E+00
 7.500000000E-01 2.730660839E-03 1.151804805E+00
 7.500000000E-01 2.786294324E-03 1.154066563E+00
 7.500000000E-01 2.843060298E-03 1.156306505E+00
 7.500000000E-01 2.900984837E-03 1.158525586E+00
 7.500000000E-01 2.960086567E-03 1.160724640E+00
 7.500000000E-01 3.020395292E-03 1.162904978E+00
 7.500000000E-01 3.081933362E-03 1.165067792E+00
 7.500000000E-01 3.144723130E-03 1.167213917E+00
 7.500000000E-01 3.208790673E-03 1.169344664E+00
 7.500000000E-01 3.274165792E-03 1.171461225E+00
 7.500000000E-01 3.340874566E-03 1.173564672E+00
 7.500000000E-01 3.408939345E-03 1.175656199E+00
 7.500000000E-01 3.478389932E-03 1.177736998E+00
 7.500000000E-01 3.549256129E-03 1.179808378E+00
 7.500000000E-01 3.621567739E-03 1.181871533E+00
 7.500000000E-01 3.695350839E-03 1.183927536E+00
 7.500000000E-01 3.770638956E-03 1.185978055E+00
 7.500000000E-01 3.847458167E-03 1.188024044E+00
 7.500000000E-01 3.925845958E-03 1.190066934E+00
 7.500000000E-01 4.005827941E-03 1.192108035E+00
 7.500000000E-01 4.087441601E-03 1.194148779E+00
 7.500000000E-01 4.170713015E-03 1.196190596E+00
 7.500000000E-01 4.255686887E-03 1.198234916E+00
 7.500000000E-01 4.342389293E-03 1.200283170E+00
 7.500000000E-01 4.430857487E-03 1.202337027E+00
 7.500000000E-01 4.521128722E-03 1.204398036E+00
 7.500000000E-01 4.613240249E-03 1.206467628E+00
 7.500000000E-01 4.707225598E-03 1.208547831E+00
 7.500000000E-01 4.803125747E-03 1.210640192E+00
 7.500000000E-01 4.900981672E-03 1.212746739E+00
 7.500000000E-01 5.000830628E-03 1.214869022E+00
 7.500000000E-01 5.102713592E-03 1.217009068E+00
 7.500000000E-01 5.206671543E-03 1.219168782E+00
 7.500000000E-01 5.312749185E-03 1.221350431E+00
 7.500000000E-01 5.420987494E-03 1.223555326E+00
 7.500000000E-01 5.531431176E-03 1.225785971E+00
 7.500000000E-01 5.644121207E-03 1.228043556E+00
 7.500000000E-01 5.759109743E-03 1.230329752E+00
 7.500000000E-01 5.876441486E-03 1.232645631E+00
 7.500000000E-01 5.996164866E-03 1.234991312E+00
 7.500000000E-01 6.118324585E-03 1.237366080E+00
 7.500000000E-01 6.242972799E-03 1.239766717E+00
 7.500000000E-01 6.370161660E-03 1.242186427E+00
 7.500000000E-01 6.499943323E-03 1.244614124E+00
 7.500000000E-01 6.632366218E-03 1.247034788E+00
 7.500000000E-01 6.767489947E-03 1.249430060E+00
 7.500000000E-01 6.905362941E-03 1.251780868E+00
 7.500000000E-01 7.046048529E-03 1.254070520E+00
 7.500000000E-01 7.189598866E-03 1.256298065E+00
 7.500000000E-01 7.336073555E-03 1.258477688E+00
 7.500000000E-01 7.485532202E-03 1.260614157E+00
 7.500000000E-01 7.638034411E-03 1.262694836E+00
 7.500000000E-01 7.793643512E-03 1.264700770E+00
 7.500000000E-01 7.952426560E-03 1.266605258E+00
 7.500000000E-01 8.114439435E-03 1.268372655E+00
 7.500000000E-01 8.279756643E-03 1.269954562E+00
 7.500000000E-01 8.448441513E-03 1.271283865E+00
 7.500000000E-01 8.620561101E-03 1.272272468E+00
 7.500000000E-01 8.796186186E-03 1.272820354E+00
 7.500000000E-01 8.975395001E-03 1.272866249E+00
 7.500000000E-01 9.158250876E-03 1.272483349E+00
 7.500000000E-01 9.344832040E-03 1.271883845E+00
 7.500000000E-01 9.535213001E-03 1.271256924E+00
 7.500000000E-01 9.729475714E-03 1.270659566E+00
 7.500000000E-01 9.927694686E-03 1.270082235E+00
 7.500000000E-01 1.012995187E-02 1.269518614E+00
 7.500000000E-01 1.033632923E-02 1.268962145E+00
 7.500000000E-01 1.054691244E-02 1.268403053E+00
 7.500000000E-01 1.076178346E-02 1.267835617E+00
 7.500000000E-01 1.098103542E-02 1.267258644E+00
 7.500000000E-01 1.120475028E-02 1.266671896E+00
 7.500000000E-01 1.143302489E-02 1.266074896E+00
 7.500000000E-01 1.166595239E-02 1.265468001E+00
 7.500000000E-01 1.190362219E-02 1.264850616E+00
 7.500000000E-01 1.214613486E-02 1.264222860E+00
 7.500000000E-01 1.239358727E-02 1.263584614E+00
 7.500000000E-01 1.264608372E-02 1.262935638E+00
 7.500000000E-01 1.290372480E-02 1.262275934E+00
 7.500000000E-01 1.316661108E-02 1.261605144E+00
 7.500000000E-01 1.343485434E-02 1.260923266E+00
 7.500000000E-01 1.370855886E-02 1.260230422E+00
 7.500000000E-01 1.398784388E-02 1.259526014E+00
 7.500000000E-01 1.427282114E-02 1.258810043E+00
 7.500000000E-01 1.456360240E-02 1.258082628E+00
 7.500000000E-01 1.486030687E-02 1.257343292E+00
 7.500000000E-01 1.516305376E-02 1.256592274E+00
 7.500000000E-01 1.547196973E-02 1.255829096E+00
 7.500000000E-01 1.578718051E-02 1.255053759E+00
 7.500000000E-01 1.610881463E-02 1.254266262E+00
 7.500000000E-01 1.643699780E-02 1.253466129E+00
 7.500000000E-01 1.677187160E-02 1.252653718E+00
 7.500000000E-01 1.711356267E-02 1.251828551E+00
 7.500000000E-01 1.746221259E-02 1.250990629E+00
 7.500000000E-01 1.781797037E-02 1.250139952E+00
 7.500000000E-01 1.818097755E-02 1.249275923E+00
 7.500000000E-01 1.855138317E-02 1.248398900E+00
 7.500000000E-01 1.892932877E-02 1.247508764E+00
 7.500000000E-01 1.931497827E-02 1.246605039E+00
 7.500000000E-01 1.970848069E-02 1.245687962E+00
 7.500000000E-01 2.010999992E-02 1.244757295E+00
 7.500000000E-01 2.051969990E-02 1.243812919E+00
 7.500000000E-01 2.093774453E-02 1.242854714E+00
 7.500000000E-01 2.136431262E-02 1.241882682E+00
 7.500000000E-01 2.179956809E-02 1.240896583E+00
 7.500000000E-01 2.224368975E-02 1.239896297E+00
 7.500000000E-01 2.269686386E-02 1.238881946E+00
 7.500000000E-01 2.315926179E-02 1.237853289E+00
 7.500000000E-01 2.363108471E-02 1.236810207E+00
 7.500000000E-01 2.411251888E-02 1.235752821E+00
 7.500000000E-01 2.460376546E-02 1.234680891E+00
 7.500000000E-01 2.510501817E-02 1.233594298E+00
 7.500000000E-01 2.561648563E-02 1.232493043E+00
 7.500000000E-01 2.613836899E-02 1.231377125E+00
 7.500000000E-01 2.667088434E-02 1.230246425E+00
 7.500000000E-01 2.721424773E-02 1.229100943E+00
 7.500000000E-01 2.776868269E-02 1.227940559E+00
 7.500000000E-01 2.833441272E-02 1.226765156E+00
 7.500000000E-01 2.891167626E-02 1.225574970E+00
 7.500000000E-01 2.950068936E-02 1.224369764E+00
 7.500000000E-01 3.010170534E-02 1.223149538E+00
 7.500000000E-01 3.071497008E-02 1.221914172E+00
 7.500000000E-01 3.134072199E-02 1.220664024E+00
 7.500000000E-01 3.197922930E-02 1.219398737E+00
 7.500000000E-01 3.263073787E-02 1.218118310E+00
 7.500000000E-01 3.329552338E-02 1.216822982E+00
 7.500000000E-01 3.397385404E-02 1.215512633E+00
 7.500000000E-01 3.466600552E-02 1.214187264E+00
 7.500000000E-01 3.537225351E-02 1.212846994E+00
 7.500000000E-01 3.609288856E-02 1.211491823E+00
 7.500000000E-01 3.682820871E-02 1.210121751E+00
 7.500000000E-01 3.757851198E-02 1.208736777E+00
 7.500000000E-01 3.834409639E-02 1.207337260E+00
 7.500000000E-01 3.912528232E-02 1.205923080E+00
 7.500000000E-01 3.992238268E-02 1.204494238E+00
 7.500000000E-01 4.073571786E-02 1.203050852E+00
 7.500000000E-01 4.156563058E-02 1.201593280E+00
 7.500000000E-01 4.241244122E-02 1.200121403E+00
 7.500000000E-01 4.327650741E-02 1.198635221E+00
 7.500000000E-01 4.415817931E-02 1.197135210E+00
 7.500000000E-01 4.505781457E-02 1.195621133E+00
 7.500000000E-01 4.597577825E-02 1.194093466E+00
 7.500000000E-01 4.691244289E-02 1.192552209E+00
 7.500000000E-01 4.786818847E-02 1.190997481E+00
 7.500000000E-01 4.884340242E-02 1.189429641E+00
 7.500000000E-01 4.983849451E-02 1.187848687E+00
 7.500000000E-01 5.085385218E-02 1.186254978E+00
 7.500000000E-01 5.188989267E-02 1.184648514E+00
 7.500000000E-01 5.294704810E-02 1.183029890E+00
 7.500000000E-01 5.402573571E-02 1.181398869E+00
 7.500000000E-01 5.512640253E-02 1.179756165E+00
 7.500000000E-01 5.624948815E-02 1.178101540E+00
 7.500000000E-01 5.739546195E-02 1.176435709E+00
 7.500000000E-01 5.856477842E-02 1.174758792E+00
 7.500000000E-01 5.975791439E-02 1.173070908E+00
 7.500000000E-01 6.097536162E-02 1.171372652E+00
 7.500000000E-01 6.221761182E-02 1.169664025E+00
 7.500000000E-01 6.348517537E-02 1.167945623E+00
 7.500000000E-01 6.477855146E-02 1.166217566E+00
 7.500000000E-01 6.609828770E-02 1.164480448E+00
 7.500000000E-01 6.744490564E-02 1.162734270E+00
 7.500000000E-01 6.881895661E-02 1.160979748E+00
 7.500000000E-01 7.022100687E-02 1.159217119E+00
 7.500000000E-01 7.165161520E-02 1.157446623E+00
 7.500000000E-01 7.311137766E-02 1.155668736E+00
 7.500000000E-01 7.460086793E-02 1.153884053E+00
 7.500000000E-01 7.612071931E-02 1.152092695E+00
 7.500000000E-01 7.767151296E-02 1.150295258E+00
 7.500000000E-01 7.925391197E-02 1.148492098E+00
 7.500000000E-01 8.086855710E-02 1.146683931E+00
 7.500000000E-01 8.251608908E-02 1.144870758E+00
 7.500000000E-01 8.419719338E-02 1.143053293E+00
 7.500000000E-01 8.591254056E-02 1.141232014E+00
 7.500000000E-01 8.766283095E-02 1.139407277E+00
 7.500000000E-01 8.944877982E-02 1.137579799E+00
 7.500000000E-01 9.127111733E-02 1.135749698E+00
 7.500000000E-01 9.313058853E-02 1.133917809E+00
 7.500000000E-01 9.502793849E-02 1.132084370E+00
 7.500000000E-01 9.696392715E-02 1.130250096E+00
 7.500000000E-01 9.893937409E-02 1.128415585E+00
 7.500000000E-01 1.009550691E-01 1.126580954E+00
 7.500000000E-01 1.030118167E-01 1.124747038E+00
 7.500000000E-01 1.051104814E-01 1.122914433E+00
 7.500000000E-01 1.072518975E-01 1.121083379E+00
 7.500000000E-01 1.094369292E-01 1.119254589E+00
 7.500000000E-01 1.116664857E-01 1.117428541E+00
 7.500000000E-01 1.139414757E-01 1.115605950E+00
 7.500000000E-01 1.162627935E-01 1.113787055E+00
 7.500000000E-01 1.186314225E-01 1.111972570E+00
 7.500000000E-01 1.210482866E-01 1.110163093E+00
 7.500000000E-01 1.235143989E-01 1.108359098E+00
 7.500000000E-01 1.260307580E-01 1.106561065E+00
 7.500000000E-01 1.285983771E-01 1.104769588E+00
 7.500000000E-01 1.312183142E-01 1.102985144E+00
 7.500000000E-01 1.338916272E-01 1.101208448E+00
 7.500000000E-01 1.366193891E-01 1.099439740E+00
 7.500000000E-01 1.394027323E-01 1.097679973E+00
 7.500000000E-01 1.422427893E-01 1.095929265E+00
 7.500000000E-01 1.451406926E-01 1.094188333E+00
 7.500000000E-01 1.480976492E-01 1.092457652E+00
 7.500000000E-01 1.511148363E-01 1.090737700E+00
 7.500000000E-01 1.541934907E-01 1.089028955E+00
 7.500000000E-01 1.573348790E-01 1.087331891E+00
 7.500000000E-01 1.605402529E-01 1.085647106E+00
 7.500000000E-01 1.638109386E-01 1.083975077E+00
 7.500000000E-01 1.671482474E-01 1.082316160E+00
 7.500000000E-01 1.705535650E-01 1.080670953E+00
 7.500000000E-01 1.740282476E-01 1.079039693E+00
 7.500000000E-01 1.775737107E-01 1.077422976E+00
 7.500000000E-01 1.811914295E-01 1.075821280E+00
 7.500000000E-01 1.848828346E-01 1.074234962E+00
 7.500000000E-01 1.886494458E-01 1.072664142E+00
 7.500000000E-01 1.924927980E-01 1.071109653E+00
 7.500000000E-01 1.964144409E-01 1.069571495E+00
 7.500000000E-01 2.004159838E-01 1.068050265E+00
 7.500000000E-01 2.044990510E-01 1.066546321E+00
 7.500000000E-01 2.086653262E-01 1.065059781E+00
 7.500000000E-01 2.129164487E-01 1.063591361E+00
 7.500000000E-01 2.172542065E-01 1.062140822E+00
 7.500000000E-01 2.216802984E-01 1.060708880E+00
 7.500000000E-01 2.261966020E-01 1.059295535E+00
 7.500000000E-01 2.308049053E-01 1.057901144E+00
 7.500000000E-01 2.355070859E-01 1.056526065E+00
 7.500000000E-01 2.403050512E-01 1.055170417E+00
 7.500000000E-01 2.452007979E-01 1.053834200E+00
 7.500000000E-01 2.501962483E-01 1.052518010E+00
 7.500000000E-01 2.552934885E-01 1.051221609E+00
 7.500000000E-01 2.604945600E-01 1.049945593E+00
 7.500000000E-01 2.658016384E-01 1.048689723E+00
 7.500000000E-01 2.712168097E-01 1.047454119E+00
 7.500000000E-01 2.767422795E-01 1.046239257E+00
 7.500000000E-01 2.823803425E-01 1.045044780E+00
 7.500000000E-01 2.881332934E-01 1.043870926E+00
 7.500000000E-01 2.940034270E-01 1.042717934E+00
 7.500000000E-01 2.999931276E-01 1.041585684E+00
 7.500000000E-01 3.061048985E-01 1.040474057E+00
 7.500000000E-01 3.123411536E-01 1.039383173E+00
 7.500000000E-01 3.187044859E-01 1.038313150E+00
 7.500000000E-01 3.251974285E-01 1.037263751E+00
 7.500000000E-01 3.318226933E-01 1.036235213E+00
 7.500000000E-01 3.385829031E-01 1.035227060E+00
 7.500000000E-01 3.454808295E-01 1.034239411E+00
 7.500000000E-01 3.525193036E-01 1.033272386E+00
 7.500000000E-01 3.597011864E-01 1.032325625E+00
 7.500000000E-01 3.670293689E-01 1.031399012E+00
 7.500000000E-01 3.745068610E-01 1.030492663E+00
 7.500000000E-01 3.821366727E-01 1.029606223E+00
 7.500000000E-01 3.899219334E-01 1.028739572E+00
 7.500000000E-01 3.978658020E-01 1.027892590E+00
 7.500000000E-01 4.059715271E-01 1.027064919E+00
 7.500000000E-01 4.142423570E-01 1.026256680E+00
 7.500000000E-01 4.226817191E-01 1.025467396E+00
 7.500000000E-01 4.312930107E-01 1.024697065E+00
 7.500000000E-01 4.400797188E-01 1.023945332E+00
 7.500000000E-01 4.490454495E-01 1.023212075E+00
 7.500000000E-01 4.581938386E-01 1.022496939E+00
 7.500000000E-01 4.675286412E-01 1.021799922E+00
 7.500000000E-01 4.770535827E-01 1.021120429E+00
 7.500000000E-01 4.867725968E-01 1.020458460E+00
 7.500000000E-01 4.966895580E-01 1.019813538E+00
 7.500000000E-01 5.068086386E-01 1.019185662E+00
 7.500000000E-01 5.171338320E-01 1.018574476E+00
 7.500000000E-01 5.276693702E-01 1.017979622E+00
 7.500000000E-01 5.384196043E-01 1.017400861E+00
 7.500000000E-01 5.493887663E-01 1.016837835E+00
 7.500000000E-01 5.605814457E-01 1.016290307E+00
 7.500000000E-01 5.720021725E-01 1.015758157E+00
 7.500000000E-01 5.836555958E-01 1.015240908E+00
 7.500000000E-01 5.955463648E-01 1.014738202E+00
 7.500000000E-01 6.076794267E-01 1.014250040E+00
 7.500000000E-01 6.200596690E-01 1.013775945E+00
 7.500000000E-01 6.326921582E-01 1.013315439E+00
 7.500000000E-01 6.455819607E-01 1.012868524E+00
 7.500000000E-01 6.587343812E-01 1.012434721E+00
 7.500000000E-01 6.721547842E-01 1.012013912E+00
 7.500000000E-01 6.858485341E-01 1.011605620E+00
 7.500000000E-01 6.998213530E-01 1.011209726E+00
 7.500000000E-01 7.140787840E-01 1.010825753E+00
 7.500000000E-01 7.286266685E-01 1.010453701E+00
 7.500000000E-01 7.434709668E-01 1.010092974E+00
 7.500000000E-01 7.586176991E-01 1.009743452E+00
 7.500000000E-01 7.740730047E-01 1.009404778E+00
 7.500000000E-01 7.898432016E-01 1.009076715E+00
 7.500000000E-01 8.059346080E-01 1.008759141E+00
 7.500000000E-01 8.223538995E-01 1.008451581E+00
 7.500000000E-01 8.391076922E-01 1.008153796E+00
 7.500000000E-01 8.562028408E-01 1.007865548E+00
 7.500000000E-01 8.736462593E-01 1.007586598E+00
 7.500000000E-01 8.914450407E-01 1.007316828E+00
 7.500000000E-01 9.096063972E-01 1.007055759E+00
 7.500000000E-01 9.281377792E-01 1.006803274E+00
 7.500000000E-01 9.470467567E-01 1.006559014E+00
 7.500000000E-01 9.663408399E-01 1.006322980E+00
 7.500000000E-01 9.860281348E-01 1.006094694E+00
 7.500000000E-01 1.006116509E+00 1.005874038E+00
 7.500000000E-01 1.026614070E+00 1.005660892E+00
 7.500000000E-01 1.047529340E+00 1.005454779E+00
 7.500000000E-01 1.068870544E+00 1.005255699E+00
 7.500000000E-01 1.090646625E+00 1.005063415E+00
 7.500000000E-01 1.112866402E+00 1.004877687E+00
 7.500000000E-01 1.135538816E+00 1.004698277E+00
 7.500000000E-01 1.158673048E+00 1.004525065E+00
 7.500000000E-01 1.182278752E+00 1.004357696E+00
 7.500000000E-01 1.206365228E+00 1.004196286E+00
 7.500000000E-01 1.230942488E+00 1.004040360E+00
 7.500000000E-01 1.256020427E+00 1.003889918E+00
 7.500000000E-01 1.281609297E+00 1.003744841E+00
 7.500000000E-01 1.307719469E+00 1.003604889E+00
 7.500000000E-01 1.334361672E+00 1.003469706E+00
 7.500000000E-01 1.361546636E+00 1.003339291E+00
 7.500000000E-01 1.389285326E+00 1.003213525E+00
 7.500000000E-01 1.417589188E+00 1.003092408E+00
 7.500000000E-01 1.446469784E+00 1.002975464E+00
 7.500000000E-01 1.475938678E+00 1.002862692E+00
 7.500000000E-01 1.506007910E+00 1.002753973E+00
 7.500000000E-01 1.536689758E+00 1.002649307E+00
 7.500000000E-01 1.567996740E+00 1.002548218E+00
 7.500000000E-01 1.599941492E+00 1.002450943E+00
 7.500000000E-01 1.632537007E+00 1.002357244E+00
 7.500000000E-01 1.665796638E+00 1.002266884E+00
 7.500000000E-01 1.699733853E+00 1.002179861E+00
 7.500000000E-01 1.734362483E+00 1.002095938E+00
 7.500000000E-01 1.769696712E+00 1.002015114E+00
 7.500000000E-01 1.805750608E+00 1.001937509E+00
 7.500000000E-01 1.842539191E+00 1.001862526E+00
 7.500000000E-01 1.880077124E+00 1.001790524E+00
 7.500000000E-01 1.918379903E+00 1.001721144E+00
 7.500000000E-01 1.957463026E+00 1.001654267E+00
 7.500000000E-01 1.997342348E+00 1.001590014E+00
 7.500000000E-01 2.038034201E+00 1.001528263E+00
 7.500000000E-01 2.079555035E+00 1.001468778E+00
 7.500000000E-01 2.121921778E+00 1.001411438E+00
 7.500000000E-01 2.165151596E+00 1.001356483E+00
 7.500000000E-01 2.209262133E+00 1.001303554E+00
 7.500000000E-01 2.254271507E+00 1.001252770E+00
 7.500000000E-01 2.300197601E+00 1.001203775E+00
 7.500000000E-01 2.347059488E+00 1.001156807E+00
 7.500000000E-01 2.394876242E+00 1.001111746E+00
 7.500000000E-01 2.443666935E+00 1.001068473E+00
 7.500000000E-01 2.493451595E+00 1.001026869E+00
 7.500000000E-01 2.544250727E+00 1.000987053E+00
 7.500000000E-01 2.596084595E+00 1.000948668E+00
 7.500000000E-01 2.648974657E+00 1.000911951E+00
 7.500000000E-01 2.702942133E+00 1.000876784E+00