variables="x","cf"
zone, t="CFL3D"
 2.780639759E-16 1.730601862E-02
 7.999999798E-04 2.206988260E-02
 1.606264967E-03 8.444868959E-03
 2.418837277E-03 7.134881336E-03
 3.237759229E-03 6.400784478E-03
 4.063073546E-03 5.904090125E-03
 4.894822836E-03 5.583129823E-03
 5.733050406E-03 5.397269968E-03
 6.577799562E-03 5.323213991E-03
 7.429112680E-03 5.332409404E-03
 8.287033997E-03 5.389794242E-03
 9.151606821E-03 5.459003150E-03
 1.002287492E-02 5.513105541E-03
 1.090088207E-02 5.540220998E-03
 1.178567298E-02 5.541171413E-03
 1.267729141E-02 5.523109809E-03
 1.357578207E-02 5.494011100E-03
 1.448118873E-02 5.459921900E-03
 1.539355703E-02 5.424477626E-03
 1.631293073E-02 5.389460828E-03
 1.723935641E-02 5.355531350E-03
 1.817287691E-02 5.322763696E-03
 1.911354065E-02 5.290975329E-03
 2.006139047E-02 5.259905010E-03
 2.101647109E-02 5.229310598E-03
 2.197883092E-02 5.199014675E-03
 2.294851467E-02 5.168922246E-03
 2.392556891E-02 5.139012355E-03
 2.491003834E-02 5.109312478E-03
 2.590196952E-02 5.079882685E-03
 2.690140903E-02 5.050800741E-03
 2.790840343E-02 5.022140685E-03
 2.892299928E-02 4.993960727E-03
 2.994524129E-02 4.966309760E-03
 3.097517975E-02 4.939227365E-03
 3.201285750E-02 4.912737291E-03
 3.305832669E-02 4.886846989E-03
 3.411163017E-02 4.861555528E-03
 3.517281637E-02 4.836860113E-03
 3.624192998E-02 4.812753759E-03
 3.731902316E-02 4.789222497E-03
 3.840414062E-02 4.766246304E-03
 3.949733078E-02 4.743803758E-03
 4.059864208E-02 4.721876699E-03
 4.170811921E-02 4.700449295E-03
 4.282581061E-02 4.679504316E-03
 4.395176470E-02 4.659021739E-03
 4.508602992E-02 4.638978746E-03
 4.622865468E-02 4.619354382E-03
 4.737968370E-02 4.600133281E-03
 4.853916913E-02 4.581301007E-03
 4.970715567E-02 4.562844988E-03
 5.088369548E-02 4.544749856E-03
 5.206883326E-02 4.527000710E-03
 5.326262116E-02 4.509580322E-03
 5.446510017E-02 4.492472857E-03
 5.567632616E-02 4.475667141E-03
 5.689634383E-02 4.459154326E-03
 5.812519789E-02 4.442925099E-03
 5.936294422E-02 4.426971078E-03
 6.060962752E-02 4.411281087E-03
 6.186529621E-02 4.395844880E-03
 6.312999874E-02 4.380651750E-03
 6.440377980E-02 4.365689121E-03
 6.568669528E-02 4.350950010E-03
 6.697878242E-02 4.336427897E-03
 6.828010082E-02 4.322118126E-03
 6.959069520E-02 4.308014642E-03
 7.091061771E-02 4.294109996E-03
 7.223990560E-02 4.280398134E-03
 7.357861102E-02 4.266872071E-03
 7.492678612E-02 4.253526684E-03
 7.628447562E-02 4.240354523E-03
 7.765173167E-02 4.227345344E-03
 7.902859896E-02 4.214488901E-03
 8.041512221E-02 4.201772623E-03
 8.181135356E-02 4.189183004E-03
 8.321733773E-02 4.176706541E-03
 8.463312685E-02 4.164335318E-03
 8.605875820E-02 4.152066540E-03
 8.749429882E-02 4.139899276E-03
 8.893977106E-02 4.127833527E-03
 9.039524198E-02 4.115869757E-03
 9.186074883E-02 4.104008432E-03
 9.333634377E-02 4.092246760E-03
 9.482206404E-02 4.080584273E-03
 9.631796926E-02 4.069022369E-03
 9.782408923E-02 4.057559650E-03
 9.934049100E-02 4.046196118E-03
 1.008672044E-01 4.034928977E-03
 1.024042815E-01 4.023756832E-03
 1.039517671E-01 4.012676887E-03
 1.055097058E-01 4.001688212E-03
 1.070781425E-01 3.990788944E-03
 1.086571217E-01 3.979975823E-03
 1.102466956E-01 3.969246056E-03
 1.118469015E-01 3.958596848E-03
 1.134577915E-01 3.948024940E-03
 1.150793955E-01 3.937529866E-03
 1.167117655E-01 3.927110229E-03
 1.183549538E-01 3.916765098E-03
 1.200089902E-01 3.906492610E-03
 1.216739267E-01 3.896291833E-03
 1.233498007E-01 3.886160674E-03
 1.250366569E-01 3.876096802E-03
 1.267345399E-01 3.866098588E-03
 1.284434944E-01 3.856163938E-03
 1.301635504E-01 3.846290987E-03
 1.318947524E-01 3.836477408E-03
 1.336371601E-01 3.826720873E-03
 1.353907883E-01 3.817018587E-03
 1.371556818E-01 3.807368455E-03
 1.389319003E-01 3.797770245E-03
 1.407194734E-01 3.788222792E-03
 1.425184160E-01 3.778724466E-03
 1.443288028E-01 3.769273637E-03
 1.461506635E-01 3.759868676E-03
 1.479840279E-01 3.750508185E-03
 1.498289257E-01 3.741190536E-03
 1.516854167E-01 3.731914330E-03
 1.535535157E-01 3.722677706E-03
 1.554332823E-01 3.713479033E-03
 1.573247313E-01 3.704316448E-03
 1.592279077E-01 3.695187159E-03
 1.611428410E-01 3.686088137E-03
 1.630695611E-01 3.677017288E-03
 1.650081277E-01 3.667973215E-03
 1.669585407E-01 3.658955451E-03
 1.689208597E-01 3.649962833E-03
 1.708951145E-01 3.640993964E-03
 1.728813201E-01 3.632046748E-03
 1.748795062E-01 3.623120254E-03
 1.768897325E-01 3.614211921E-03
 1.789119989E-01 3.605320351E-03
 1.809463501E-01 3.596443683E-03
 1.829928160E-01 3.587580053E-03
 1.850514114E-01 3.578727134E-03
 1.871221811E-01 3.569882829E-03
 1.892051548E-01 3.561043879E-03
 1.913003325E-01 3.552207258E-03
 1.934077740E-01 3.543371102E-03
 1.955274791E-01 3.534534248E-03
 1.976594776E-01 3.525695531E-03
 1.998037994E-01 3.516853089E-03
 2.019604743E-01 3.508004360E-03
 2.041295022E-01 3.499147249E-03
 2.063109279E-01 3.490278963E-03
 2.085047662E-01 3.481396707E-03
 2.107110322E-01 3.472498385E-03
 2.129297554E-01 3.463580972E-03
 2.151609361E-01 3.454641905E-03
 2.174046040E-01 3.445678391E-03
 2.196607888E-01 3.436686005E-03
 2.219294906E-01 3.427660558E-03
 2.242107242E-01 3.418599255E-03
 2.265045196E-01 3.409499768E-03
 2.288108766E-01 3.400359536E-03
 2.311298251E-01 3.391175065E-03
 2.334613651E-01 3.381942865E-03
 2.358054966E-01 3.372658975E-03
 2.381622493E-01 3.363318974E-03
 2.405316383E-01 3.353918903E-03
 2.429136485E-01 3.344453871E-03
 2.453083098E-01 3.334918991E-03
 2.477156222E-01 3.325308673E-03
 2.501356006E-01 3.315615701E-03
 2.525682449E-01 3.305833787E-03
 2.550135255E-01 3.295957344E-03
 2.574715018E-01 3.285981016E-03
 2.599421442E-01 3.275898518E-03
 2.624254823E-01 3.265702864E-03
 2.649214864E-01 3.255385906E-03
 2.674301565E-01 3.244939027E-03
 2.699515224E-01 3.234352684E-03
 2.724855542E-01 3.223616397E-03
 2.750322521E-01 3.212718060E-03
 2.775916159E-01 3.201643704E-03
 2.801636457E-01 3.190380055E-03
 2.827483416E-01 3.178913845E-03
 2.853456736E-01 3.167229705E-03
 2.879556417E-01 3.155310173E-03
 2.905782461E-01 3.143134061E-03
 2.932134569E-01 3.130675294E-03
 2.958613038E-01 3.117902437E-03
 2.985217273E-01 3.104777075E-03
 3.011947274E-01 3.091254737E-03
 3.038803041E-01 3.077300498E-03
 3.065784574E-01 3.062903881E-03
 3.092890978E-01 3.048070008E-03
 3.120122850E-01 3.032807261E-03
 3.147479594E-01 3.017124487E-03
 3.174961209E-01 3.001033561E-03
 3.202567399E-01 2.984550083E-03
 3.230297565E-01 2.967694309E-03
 3.258152306E-01 2.950487658E-03
 3.286130428E-01 2.932948992E-03
 3.314232230E-01 2.915103920E-03
 3.342457414E-01 2.897004131E-03
 3.370805681E-01 2.878679894E-03
 3.399276435E-01 2.860131441E-03
 3.427869678E-01 2.841394162E-03
 3.456584811E-01 2.822497860E-03
 3.485421836E-01 2.803521464E-03
 3.514380157E-01 2.784562763E-03
 3.543459177E-01 2.765584737E-03
 3.572659194E-01 2.746555256E-03
 3.601979017E-01 2.727607731E-03
 3.631418645E-01 2.708902117E-03
 3.660977483E-01 2.690374386E-03
 3.690654933E-01 2.671922324E-03
 3.720450699E-01 2.653837902E-03
 3.750364482E-01 2.636242425E-03
 3.780395389E-01 2.618812257E-03
 3.810542822E-01 2.601870801E-03
 3.840806186E-01 2.585596172E-03
 3.871185184E-01 2.569660544E-03
 3.901678622E-01 2.554445062E-03
 3.932286203E-01 2.539825859E-03
 3.963007331E-01 2.525877906E-03
 3.993840814E-01 2.512903651E-03
 4.024785757E-01 2.500561997E-03
 4.055841863E-01 2.489120234E-03
 4.087007940E-01 2.478610026E-03
 4.118283093E-01 2.469038591E-03
 4.149666429E-01 2.460523741E-03
 4.181156456E-01 2.453024732E-03
 4.212752879E-01 2.446683124E-03
 4.244453907E-01 2.441433026E-03
 4.276258647E-01 2.437433228E-03
 4.308166206E-01 2.434602240E-03
 4.340174794E-01 2.433075802E-03
 4.372283220E-01 2.432906535E-03
 4.404490292E-01 2.433961490E-03
 4.436794519E-01 2.436638111E-03
 4.469194710E-01 2.440478187E-03
 4.501688778E-01 2.445807448E-03
 4.534275532E-01 2.452748362E-03
 4.566953778E-01 2.460926771E-03
 4.599721134E-01 2.470991807E-03
 4.632576406E-01 2.482369775E-03
 4.665518105E-01 2.495170571E-03
 4.698544145E-01 2.510100370E-03
 4.731652737E-01 2.526280470E-03
 4.764842689E-01 2.543915529E-03
 4.798111618E-01 2.563722199E-03
 4.831458032E-01 2.585045295E-03
 4.864880145E-01 2.607677598E-03
 4.898376465E-01 2.632353455E-03
 4.931944907E-01 2.659046790E-03
 4.965583980E-01 2.687051194E-03
 4.999292195E-01 2.716653980E-03
 5.033067465E-01 2.748438623E-03
 5.066908002E-01 2.782075433E-03
 5.100812912E-01 2.817157889E-03
 5.134780407E-01 2.853832906E-03
 5.168808699E-01 2.892613178E-03
 5.202897191E-01 2.933486598E-03
 5.237043500E-01 2.975832205E-03
 5.271247625E-01 3.019746626E-03
 5.305507779E-01 3.065461991E-03
 5.339823365E-01 3.113182262E-03
 5.374191999E-01 3.162913956E-03
 5.408614874E-01 3.214146709E-03
 5.443089604E-01 3.266958287E-03
 5.477616787E-01 3.321538214E-03
 5.512195230E-01 3.377808491E-03
 5.546824932E-01 3.435935592E-03
 5.581504703E-01 3.495861078E-03
 5.616235137E-01 3.557241522E-03
 5.651015639E-01 3.620117437E-03
 5.685847402E-01 3.684576135E-03
 5.720728636E-01 3.750542179E-03
 5.755661130E-01 3.817972727E-03
 5.790644884E-01 3.886829596E-03
 5.825679898E-01 3.957091365E-03
 5.860767365E-01 4.028634634E-03
 5.895906687E-01 4.101322033E-03
 5.931099653E-01 4.175115842E-03
 5.966346264E-01 4.249964375E-03
 6.001648307E-01 4.325770307E-03
 6.037005186E-01 4.402431659E-03
 6.072419286E-01 4.479847848E-03
 6.107890606E-01 4.557900131E-03
 6.143419743E-01 4.636464640E-03
 6.179008484E-01 4.715410527E-03
 6.214657426E-01 4.794588778E-03
 6.250367761E-01 4.873853642E-03
 6.286140084E-01 4.953032825E-03
 6.321974993E-01 5.031947047E-03
 6.357874274E-01 5.110421218E-03
 6.393837333E-01 5.188250449E-03
 6.429865360E-01 5.265221000E-03
 6.465959549E-01 5.341124721E-03
 6.502119303E-01 5.415722728E-03
 6.538345814E-01 5.488768220E-03
 6.574639082E-01 5.560021382E-03
 6.610997915E-01 5.629224237E-03
 6.647424102E-01 5.696101580E-03
 6.683915854E-01 5.760382861E-03
 6.720473170E-01 5.821804050E-03
 6.757094860E-01 5.880079232E-03
 6.793780923E-01 5.934919696E-03
 6.830529571E-01 5.986060947E-03
 6.867339015E-01 6.033251528E-03
 6.904208660E-01 6.076233461E-03
 6.941135526E-01 6.114744581E-03
 6.978118420E-01 6.147962529E-03
 7.015154362E-01 6.175612099E-03
 7.052240968E-01 6.198344752E-03
 7.089375854E-01 6.215844303E-03
 7.126555443E-01 6.227607839E-03
 7.163776159E-01 6.233566906E-03
 7.201035023E-01 6.233599503E-03
 7.238328457E-01 6.227207836E-03
 7.275652289E-01 6.213739514E-03
 7.313002348E-01 6.193806883E-03
 7.350375056E-01 6.168133579E-03
 7.387765050E-01 6.136315875E-03
 7.425169349E-01 6.097998936E-03
 7.462582588E-01 6.053272635E-03
 7.500000000E-01 6.001169793E-03
 7.537417412E-01 5.941636860E-03
 7.574830651E-01 5.876597948E-03
 7.612234950E-01 5.806164816E-03
 7.649624944E-01 5.729901139E-03
 7.686997652E-01 5.648318678E-03
 7.724347711E-01 5.561330356E-03
 7.761671543E-01 5.468827207E-03
 7.798964977E-01 5.371819250E-03
 7.836223841E-01 5.271285307E-03
 7.873444557E-01 5.167216528E-03
 7.910624146E-01 5.059797317E-03
 7.947759032E-01 4.949451424E-03
 7.984845638E-01 4.836611450E-03
 8.021881580E-01 4.721284378E-03
 8.058864474E-01 4.603696056E-03
 8.095791340E-01 4.484919365E-03
 8.132660985E-01 4.365228117E-03
 8.169470429E-01 4.244543612E-03
 8.206219077E-01 4.123420920E-03
 8.242905140E-01 4.002483096E-03
 8.279526830E-01 3.882211400E-03
 8.316084146E-01 3.762944601E-03
 8.352575898E-01 3.644968383E-03
 8.389002085E-01 3.528545378E-03
 8.425360918E-01 3.413928906E-03
 8.461654186E-01 3.301349003E-03
 8.497880697E-01 3.191022202E-03
 8.534040451E-01 3.083150135E-03
 8.570134640E-01 2.977909055E-03
 8.606162667E-01 2.875455422E-03
 8.642125726E-01 2.775934525E-03
 8.678025007E-01 2.679471392E-03
 8.713859916E-01 2.586170333E-03
 8.749632239E-01 2.496123314E-03
 8.785342574E-01 2.409407636E-03
 8.820991516E-01 2.326079411E-03
 8.856580257E-01 2.246183110E-03
 8.892109394E-01 2.169750398E-03
 8.927580714E-01 2.096795477E-03
 8.962994814E-01 2.027322073E-03
 8.998351693E-01 1.961320639E-03
 9.033653736E-01 1.898769755E-03
 9.068900347E-01 1.839641016E-03
 9.104093313E-01 1.783894608E-03
 9.139232635E-01 1.731473487E-03
 9.174320102E-01 1.682337606E-03
 9.209355116E-01 1.636461820E-03
 9.244338870E-01 1.593748690E-03
 9.279271364E-01 1.554085407E-03
 9.314152598E-01 1.517403289E-03
 9.348984361E-01 1.483623753E-03
 9.383764863E-01 1.452672179E-03
 9.418495297E-01 1.424424234E-03
 9.453175068E-01 1.398860826E-03
 9.487804770E-01 1.375986147E-03
 9.522383213E-01 1.355553046E-03
 9.556910396E-01 1.337423688E-03
 9.591385126E-01 1.321599470E-03
 9.625808001E-01 1.307927421E-03
 9.660176635E-01 1.296433038E-03
 9.694492221E-01 1.287170802E-03
 9.728752375E-01 1.279810327E-03
 9.762956500E-01 1.274238224E-03
 9.797102809E-01 1.270414330E-03
 9.831191301E-01 1.268384745E-03
 9.865219593E-01 1.268250402E-03
 9.899187088E-01 1.269635861E-03
 9.933091998E-01 1.272365684E-03
 9.966932535E-01 1.276586205E-03
 1.000070810E+00 1.282403129E-03
 1.003441572E+00 1.289621810E-03
 1.006805539E+00 1.297896379E-03
 1.010162354E+00 1.307401923E-03
 1.013512015E+00 1.318358816E-03
 1.016854167E+00 1.330367522E-03
 1.020188808E+00 1.343216747E-03
 1.023515701E+00 1.357252360E-03
 1.026834726E+00 1.372434548E-03
 1.030145645E+00 1.388251432E-03
 1.033448219E+00 1.404978102E-03
 1.036742330E+00 1.422800473E-03
 1.040027857E+00 1.441105618E-03
 1.043304682E+00 1.460181782E-03
 1.046572447E+00 1.480100327E-03
 1.049831152E+00 1.500428072E-03
 1.053080559E+00 1.521493308E-03
 1.056320548E+00 1.543005579E-03
 1.059551001E+00 1.564947423E-03
 1.062771678E+00 1.587485312E-03
 1.065982580E+00 1.610267325E-03
 1.069183350E+00 1.633463893E-03
 1.072374105E+00 1.656911103E-03
 1.075554609E+00 1.680536079E-03
 1.078724742E+00 1.704293070E-03
 1.081884384E+00 1.728013041E-03
 1.085033417E+00 1.751723816E-03
 1.088171721E+00 1.775333891E-03
 1.091299176E+00 1.798899611E-03
 1.094415784E+00 1.822338905E-03
 1.097521424E+00 1.845674473E-03
 1.100615978E+00 1.868839841E-03
 1.103699327E+00 1.891776687E-03
 1.106771350E+00 1.914627152E-03
 1.109832168E+00 1.937087509E-03
 1.112881541E+00 1.959272660E-03
 1.115919352E+00 1.981169218E-03
 1.118945718E+00 2.002622932E-03
 1.121960521E+00 2.023846842E-03
 1.124963522E+00 2.044553636E-03
 1.127954960E+00 2.064771717E-03
 1.130934477E+00 2.084685490E-03
 1.133902311E+00 2.104034182E-03
 1.136858106E+00 2.122806385E-03
 1.139802098E+00 2.141151577E-03
 1.142734051E+00 2.158980351E-03
 1.145654082E+00 2.176186768E-03
 1.148561954E+00 2.192812040E-03
 1.151457787E+00 2.208920894E-03
 1.154341459E+00 2.224472119E-03
 1.157212973E+00 2.239396796E-03
 1.160072327E+00 2.253714716E-03
 1.162919402E+00 2.267451258E-03
 1.165754199E+00 2.280610614E-03
 1.168576717E+00 2.293206053E-03
 1.171386957E+00 2.305221511E-03
 1.174184799E+00 2.316659549E-03
 1.176970243E+00 2.327543451E-03
 1.179743290E+00 2.337887418E-03
 1.182503939E+00 2.347707050E-03
 1.185252070E+00 2.357022138E-03
 1.187987685E+00 2.365856199E-03
 1.190710902E+00 2.374234609E-03
 1.193421602E+00 2.382186707E-03
 1.196119666E+00 2.389746718E-03
 1.198805213E+00 2.396953059E-03
 1.201478243E+00 2.403850202E-03
 1.204138756E+00 2.410475863E-03
 1.206786513E+00 2.416851465E-03
 1.209421754E+00 2.422990045E-03
 1.212044358E+00 2.428902313E-03
 1.214654326E+00 2.434598515E-03
 1.217251658E+00 2.440089127E-03
 1.219836354E+00 2.445383463E-03
 1.222408414E+00 2.450491069E-03
 1.224967718E+00 2.455421025E-03
 1.227514505E+00 2.460181946E-03
 1.230048537E+00 2.464781748E-03
 1.232569814E+00 2.469227882E-03
 1.235078573E+00 2.473526867E-03
 1.237574458E+00 2.477684990E-03
 1.240057826E+00 2.481708070E-03
 1.242528439E+00 2.485601930E-03
 1.244986415E+00 2.489371924E-03
 1.247431755E+00 2.493023872E-03
 1.249864459E+00 2.496562898E-03
 1.252284408E+00 2.499993425E-03
 1.254691720E+00 2.503320109E-03
 1.257086396E+00 2.506547142E-03
 1.259468317E+00 2.509678714E-03
 1.261837721E+00 2.512718318E-03
 1.264194489E+00 2.515669446E-03
 1.266538620E+00 2.518535126E-03
 1.268870234E+00 2.521318849E-03
 1.271189094E+00 2.524023177E-03
 1.273495436E+00 2.526651137E-03
 1.275789261E+00 2.529205987E-03
 1.278070450E+00 2.531690290E-03
 1.280339241E+00 2.534106839E-03
 1.282595396E+00 2.536458196E-03
 1.284839034E+00 2.538746689E-03
 1.287070274E+00 2.540974179E-03
 1.289288998E+00 2.543143230E-03
 1.291495204E+00 2.545255702E-03
 1.293689013E+00 2.547313459E-03
 1.295870543E+00 2.549318364E-03
 1.298039556E+00 2.551271813E-03
 1.300196171E+00 2.553175902E-03
 1.302340508E+00 2.555031795E-03
 1.304472566E+00 2.556841588E-03
 1.306592226E+00 2.558606444E-03
 1.308699608E+00 2.560328459E-03
 1.310794830E+00 2.562008798E-03
 1.312877774E+00 2.563648857E-03
 1.314948559E+00 2.565250034E-03
 1.317007184E+00 2.566813491E-03
 1.319053650E+00 2.568340627E-03
 1.321087956E+00 2.569832606E-03
 1.323110223E+00 2.571290126E-03
 1.325120449E+00 2.572714817E-03
 1.327118635E+00 2.574107144E-03
 1.329104900E+00 2.575468505E-03
 1.331079125E+00 2.576799830E-03
 1.333041430E+00 2.578102285E-03
 1.334991932E+00 2.579376334E-03
 1.336930394E+00 2.580623142E-03
 1.338857174E+00 2.581843175E-03
 1.340772152E+00 2.583037596E-03
 1.342675328E+00 2.584206639E-03
 1.344566703E+00 2.585351467E-03
 1.346446514E+00 2.586472780E-03
 1.348314643E+00 2.587571274E-03
 1.350171089E+00 2.588647883E-03
 1.352015972E+00 2.589703305E-03
 1.353849292E+00 2.590738237E-03
 1.355671167E+00 2.591752913E-03
 1.357481599E+00 2.592748497E-03
 1.359280586E+00 2.593725221E-03
 1.361068130E+00 2.594683785E-03
 1.362844348E+00 2.595624654E-03
 1.364609241E+00 2.596548526E-03
 1.366362810E+00 2.597455867E-03
 1.368105292E+00 2.598347375E-03
 1.369836450E+00 2.599223284E-03
 1.371556520E+00 2.600084059E-03
 1.373265505E+00 2.600930631E-03
 1.374963284E+00 2.601762768E-03
 1.376650214E+00 2.602581400E-03
 1.378326058E+00 2.603386994E-03
 1.379991055E+00 2.604179550E-03
 1.381645083E+00 2.604959998E-03
 1.383288264E+00 2.605728572E-03
 1.384920597E+00 2.606485505E-03
 1.386542201E+00 2.607231261E-03
 1.388153076E+00 2.607966308E-03
 1.389753342E+00 2.608691109E-03
 1.391342878E+00 2.609405899E-03
 1.392921805E+00 2.610111143E-03
 1.394490242E+00 2.610807074E-03
 1.396048188E+00 2.611493925E-03
 1.397595763E+00 2.612172393E-03
 1.399132848E+00 2.612842480E-03
 1.400659561E+00 2.613504650E-03
 1.402175903E+00 2.614159370E-03
 1.403681993E+00 2.614806639E-03
 1.405177951E+00 2.615446690E-03
 1.406663656E+00 2.616080223E-03
 1.408139229E+00 2.616707468E-03
 1.409604788E+00 2.617328428E-03
 1.411060214E+00 2.617943566E-03
 1.412505746E+00 2.618553350E-03
 1.413941264E+00 2.619158011E-03
 1.415366888E+00 2.619758015E-03
 1.416782618E+00 2.620353363E-03
 1.418188691E+00 2.620944288E-03
 1.419584870E+00 2.621531487E-03
 1.420971394E+00 2.622114960E-03
 1.422348261E+00 2.622694941E-03
 1.423715472E+00 2.623272128E-03
 1.425073266E+00 2.623846522E-03
 1.426421404E+00 2.624418354E-03
 1.427760124E+00 2.624987857E-03
 1.429089427E+00 2.625555731E-03
 1.430409312E+00 2.626121975E-03
 1.431719899E+00 2.626687055E-03
 1.433021188E+00 2.627251204E-03
 1.434313297E+00 2.627814654E-03
 1.435596228E+00 2.628377872E-03
 1.436869979E+00 2.628940856E-03
 1.438134670E+00 2.629504306E-03
 1.439390421E+00 2.630068688E-03
 1.440637112E+00 2.630633768E-03
 1.441874743E+00 2.631200477E-03
 1.443103671E+00 2.631768817E-03
 1.444323659E+00 2.632339485E-03
 1.445534945E+00 2.632912714E-03
 1.446737409E+00 2.633488970E-03
 1.447931170E+00 2.634068718E-03
 1.449116349E+00 2.634652425E-03
 1.450292826E+00 2.635240322E-03
 1.451460838E+00 2.635833342E-03
 1.452620268E+00 2.636431716E-03
 1.453771353E+00 2.637035912E-03
 1.454913974E+00 2.637647092E-03
 1.456048250E+00 2.638265258E-03
 1.457174182E+00 2.638891339E-03
 1.458291888E+00 2.639526268E-03
 1.459401369E+00 2.640170278E-03
 1.460502625E+00 2.640824532E-03
 1.461595893E+00 2.641489962E-03
 1.462680936E+00 2.642167266E-03
 1.463758111E+00 2.642857609E-03
 1.464827180E+00 2.643562388E-03
 1.465888381E+00 2.644282766E-03
 1.466941714E+00 2.645020140E-03
 1.467987180E+00 2.645775909E-03
 1.469024777E+00 2.646552166E-03
 1.470054746E+00 2.647350309E-03
 1.471076965E+00 2.648172900E-03
 1.472091556E+00 2.649022033E-03
 1.473098636E+00 2.649900503E-03
 1.474098086E+00 2.650811104E-03
 1.475089908E+00 2.651757328E-03
 1.476074457E+00 2.652743133E-03
 1.477051497E+00 2.653772710E-03
 1.478021145E+00 2.654851414E-03
 1.478983521E+00 2.655984834E-03
 1.479938626E+00 2.657179954E-03
 1.480886459E+00 2.658444922E-03
 1.481827140E+00 2.659789752E-03
 1.482760668E+00 2.661226317E-03
 1.483687043E+00 2.662768355E-03
 1.484606385E+00 2.664430765E-03
 1.485518813E+00 2.666228684E-03
 1.486424208E+00 2.668177243E-03
 1.487322688E+00 2.670295304E-03
 1.488214374E+00 2.672620583E-03
 1.489099145E+00 2.675237367E-03
 1.489977121E+00 2.678317949E-03
 1.490848422E+00 2.682144986E-03
 1.491712928E+00 2.687060740E-03
 1.492570877E+00 2.693231916E-03
 1.493422151E+00 2.700125100E-03
 1.494266987E+00 2.705582883E-03
 1.495105147E+00 2.704627113E-03
 1.495936871E+00 2.688174369E-03
 1.496762276E+00 2.642782871E-03
 1.497581124E+00 2.550455974E-03
 1.498393774E+00 2.389409114E-03
 1.499199986E+00 3.933902830E-03
 1.500000000E+00 2.780439332E-03
zone, t="FUN3D"
 2.780639759E-16 2.099567093E-02
 7.999999798E-04 1.479847636E-02
 1.606264967E-03 7.895459421E-03
 2.418837277E-03 6.719629280E-03
 3.237759229E-03 5.985564552E-03
 4.063073546E-03 5.444782320E-03
 4.894822836E-03 5.027200095E-03
 5.733050406E-03 4.691377748E-03
 6.577799562E-03 4.415126517E-03
 7.429112680E-03 4.184221383E-03
 8.287033997E-03 3.991478123E-03
 9.151606821E-03 3.837183584E-03
 1.002287492E-02 3.731199307E-03
 1.090088207E-02 3.691615770E-03
 1.178567298E-02 3.736721585E-03
 1.267729141E-02 3.871730296E-03
 1.357578207E-02 4.078940954E-03
 1.448118873E-02 4.320431035E-03
 1.539355703E-02 4.553352948E-03
 1.631293073E-02 4.747071303E-03
 1.723935641E-02 4.890512675E-03
 1.817287691E-02 4.987980705E-03
 1.911354065E-02 5.050405394E-03
 2.006139047E-02 5.088655278E-03
 2.101647109E-02 5.110755563E-03
 2.197883092E-02 5.121778231E-03
 2.294851467E-02 5.124718416E-03
 2.392556891E-02 5.121384282E-03
 2.491003834E-02 5.112991668E-03
 2.590196952E-02 5.100482609E-03
 2.690140903E-02 5.084656645E-03
 2.790840343E-02 5.066213198E-03
 2.892299928E-02 5.045764148E-03
 2.994524129E-02 5.023836624E-03
 3.097517975E-02 5.000873469E-03
 3.201285750E-02 4.977232777E-03
 3.305832669E-02 4.953195341E-03
 3.411163017E-02 4.928980488E-03
 3.517281637E-02 4.904759582E-03
 3.624192998E-02 4.880663007E-03
 3.731902316E-02 4.856785759E-03
 3.840414062E-02 4.833191633E-03
 3.949733078E-02 4.809927195E-03
 4.059864208E-02 4.787026905E-03
 4.170811921E-02 4.764514975E-03
 4.282581061E-02 4.742406309E-03
 4.395176470E-02 4.720705096E-03
 4.508602992E-02 4.699409474E-03
 4.622865468E-02 4.678515252E-03
 4.737968370E-02 4.658018239E-03
 4.853916913E-02 4.637913778E-03
 4.970715567E-02 4.618195351E-03
 5.088369548E-02 4.598853644E-03
 5.206883326E-02 4.579875618E-03
 5.326262116E-02 4.561247770E-03
 5.446510017E-02 4.542959854E-03
 5.567632616E-02 4.525001626E-03
 5.689634383E-02 4.507366102E-03
 5.812519789E-02 4.490043968E-03
 5.936294422E-02 4.473024979E-03
 6.060962752E-02 4.456298426E-03
 6.186529621E-02 4.439851269E-03
 6.312999874E-02 4.423673265E-03
 6.440377980E-02 4.407755565E-03
 6.568669528E-02 4.392090719E-03
 6.697878242E-02 4.376672674E-03
 6.828010082E-02 4.361493979E-03
 6.959069520E-02 4.346548114E-03
 7.091061771E-02 4.331826698E-03
 7.223990560E-02 4.317321349E-03
 7.357861102E-02 4.303022753E-03
 7.492678612E-02 4.288922530E-03
 7.628447562E-02 4.275015090E-03
 7.765173167E-02 4.261296242E-03
 7.902859896E-02 4.247762263E-03
 8.041512221E-02 4.234405700E-03
 8.181135356E-02 4.221215844E-03
 8.321733773E-02 4.208178725E-03
 8.463312685E-02 4.195278976E-03
 8.605875820E-02 4.182501230E-03
 8.749429882E-02 4.169835243E-03
 8.893977106E-02 4.157274030E-03
 9.039524198E-02 4.144817591E-03
 9.186074883E-02 4.132466856E-03
 9.333634377E-02 4.120224155E-03
 9.482206404E-02 4.108091351E-03
 9.631796926E-02 4.096068442E-03
 9.782408923E-02 4.084154498E-03
 9.934049100E-02 4.072348122E-03
 1.008672044E-01 4.060648847E-03
 1.024042815E-01 4.049052950E-03
 1.039517671E-01 4.037558567E-03
 1.055097058E-01 4.026162438E-03
 1.070781425E-01 4.014860839E-03
 1.086571217E-01 4.003651440E-03
 1.102466956E-01 3.992534243E-03
 1.118469015E-01 3.981506918E-03
 1.134577915E-01 3.970569000E-03
 1.150793955E-01 3.959717695E-03
 1.167117655E-01 3.948951140E-03
 1.183549538E-01 3.938267473E-03
 1.200089902E-01 3.927664366E-03
 1.216739267E-01 3.917139955E-03
 1.233498007E-01 3.906691913E-03
 1.250366569E-01 3.896316979E-03
 1.267345399E-01 3.886012360E-03
 1.284434944E-01 3.875775030E-03
 1.301635504E-01 3.865603823E-03
 1.318947524E-01 3.855498042E-03
 1.336371601E-01 3.845456289E-03
 1.353907883E-01 3.835476702E-03
 1.371556818E-01 3.825557418E-03
 1.389319003E-01 3.815696808E-03
 1.407194734E-01 3.805892775E-03
 1.425184160E-01 3.796144156E-03
 1.443288028E-01 3.786448855E-03
 1.461506635E-01 3.776805475E-03
 1.479840279E-01 3.767211456E-03
 1.498289257E-01 3.757664002E-03
 1.516854167E-01 3.748160088E-03
 1.535535157E-01 3.738697385E-03
 1.554332823E-01 3.729274264E-03
 1.573247313E-01 3.719890257E-03
 1.592279077E-01 3.710544435E-03
 1.611428410E-01 3.701235401E-03
 1.630695611E-01 3.691961523E-03
 1.650081277E-01 3.682720708E-03
 1.669585407E-01 3.673511324E-03
 1.689208597E-01 3.664331511E-03
 1.708951145E-01 3.655179404E-03
 1.728813201E-01 3.646053141E-03
 1.748795062E-01 3.636950627E-03
 1.768897325E-01 3.627869301E-03
 1.789119989E-01 3.618806135E-03
 1.809463501E-01 3.609758336E-03
 1.829928160E-01 3.600724041E-03
 1.850514114E-01 3.591702087E-03
 1.871221811E-01 3.582691308E-03
 1.892051548E-01 3.573690308E-03
 1.913003325E-01 3.564696992E-03
 1.934077740E-01 3.555709263E-03
 1.955274791E-01 3.546725027E-03
 1.976594776E-01 3.537741955E-03
 1.998037994E-01 3.528757719E-03
 2.019604743E-01 3.519769991E-03
 2.041295022E-01 3.510776442E-03
 2.063109279E-01 3.501773812E-03
 2.085047662E-01 3.492758609E-03
 2.107110322E-01 3.483727342E-03
 2.129297554E-01 3.474677680E-03
 2.151609361E-01 3.465607530E-03
 2.174046040E-01 3.456514794E-03
 2.196607888E-01 3.447396914E-03
 2.219294906E-01 3.438250627E-03
 2.242107242E-01 3.429072909E-03
 2.265045196E-01 3.419860266E-03
 2.288108766E-01 3.410609206E-03
 2.311298251E-01 3.401316237E-03
 2.334613651E-01 3.391976934E-03
 2.358054966E-01 3.382587107E-03
 2.381622493E-01 3.373141401E-03
 2.405316383E-01 3.363634693E-03
 2.429136485E-01 3.354061861E-03
 2.453083098E-01 3.344419412E-03
 2.477156222E-01 3.334702924E-03
 2.501356006E-01 3.324907739E-03
 2.525682449E-01 3.315027803E-03
 2.550135255E-01 3.305057064E-03
 2.574715018E-01 3.294989001E-03
 2.599421442E-01 3.284816863E-03
 2.624254823E-01 3.274532501E-03
 2.649214864E-01 3.264127532E-03
 2.674301565E-01 3.253591480E-03
 2.699515224E-01 3.242914798E-03
 2.724855542E-01 3.232087707E-03
 2.750322521E-01 3.221100196E-03
 2.775916159E-01 3.209941322E-03
 2.801636457E-01 3.198597813E-03
 2.827483416E-01 3.187055001E-03
 2.853456736E-01 3.175295657E-03
 2.879556417E-01 3.163299290E-03
 2.905782461E-01 3.151043551E-03
 2.932134569E-01 3.138510045E-03
 2.958613038E-01 3.125695046E-03
 2.985217273E-01 3.112602513E-03
 3.011947274E-01 3.099176334E-03
 3.038803041E-01 3.085302189E-03
 3.065784574E-01 3.070924198E-03
 3.092890978E-01 3.056062385E-03
 3.120122850E-01 3.040742129E-03
 3.147479594E-01 3.024975536E-03
 3.174961209E-01 3.008771921E-03
 3.202567399E-01 2.992143854E-03
 3.230297565E-01 2.975113224E-03
 3.258152306E-01 2.957711229E-03
 3.286130428E-01 2.939951606E-03
 3.314232230E-01 2.921858104E-03
 3.342457414E-01 2.903552726E-03
 3.370805681E-01 2.885115333E-03
 3.399276435E-01 2.866493538E-03
 3.427869678E-01 2.847670345E-03
 3.456584811E-01 2.828717465E-03
 3.485421836E-01 2.809720347E-03
 3.514380157E-01 2.790706232E-03
 3.543459177E-01 2.771655098E-03
 3.572659194E-01 2.752633067E-03
 3.601979017E-01 2.733746776E-03
 3.631418645E-01 2.714952454E-03
 3.660977483E-01 2.696244279E-03
 3.690654933E-01 2.677884419E-03
 3.720450699E-01 2.659857040E-03
 3.750364482E-01 2.641949104E-03
 3.780395389E-01 2.624555724E-03
 3.810542822E-01 2.607693430E-03
 3.840806186E-01 2.591129160E-03
 3.871185184E-01 2.575261053E-03
 3.901678622E-01 2.559913089E-03
 3.932286203E-01 2.545185853E-03
 3.963007331E-01 2.531327074E-03
 3.993840814E-01 2.518094843E-03
 4.024785757E-01 2.505738055E-03
 4.055841863E-01 2.494240645E-03
 4.087007940E-01 2.483631019E-03
 4.118283093E-01 2.474020468E-03
 4.149666429E-01 2.465390367E-03
 4.181156456E-01 2.457856666E-03
 4.212752879E-01 2.451395849E-03
 4.244453907E-01 2.446117112E-03
 4.276258647E-01 2.441999037E-03
 4.308166206E-01 2.439118922E-03
 4.340174794E-01 2.437542658E-03
 4.372283220E-01 2.437213901E-03
 4.404490292E-01 2.438355703E-03
 4.436794519E-01 2.440801123E-03
 4.469194710E-01 2.444644459E-03
 4.501688778E-01 2.449987223E-03
 4.534275532E-01 2.456690185E-03
 4.566953778E-01 2.465037396E-03
 4.599721134E-01 2.474876586E-03
 4.632576406E-01 2.486143494E-03
 4.665518105E-01 2.499165945E-03
 4.698544145E-01 2.513787476E-03
 4.731652737E-01 2.529879333E-03
 4.764842689E-01 2.547715092E-03
 4.798111618E-01 2.567321761E-03
 4.831458032E-01 2.588455100E-03
 4.864880145E-01 2.611228032E-03
 4.898376465E-01 2.635927405E-03
 4.931944907E-01 2.662358340E-03
 4.965583980E-01 2.690320835E-03
 4.999292195E-01 2.720064716E-03
 5.033067465E-01 2.751767403E-03
 5.066908002E-01 2.785235643E-03
 5.100812912E-01 2.820260590E-03
 5.134780407E-01 2.857033862E-03
 5.168808699E-01 2.895836951E-03
 5.202897191E-01 2.936493605E-03
 5.237043500E-01 2.978796139E-03
 5.271247625E-01 3.022727091E-03
 5.305507779E-01 3.068475984E-03
 5.339823365E-01 3.116222797E-03
 5.374191999E-01 3.165767761E-03
 5.408614874E-01 3.216967685E-03
 5.443089604E-01 3.269831184E-03
 5.477616787E-01 3.324367804E-03
 5.512195230E-01 3.380689304E-03