variables="x","cp"
zone, t="CFL3D"
 2.780600055E-16 6.336999685E-02
 7.999999798E-04 3.503900021E-02
 1.606300008E-03 2.376200072E-02
 2.418800024E-03 2.594400011E-02
 3.237799974E-03 2.533599921E-02
 4.063100088E-03 2.573500015E-02
 4.894800019E-03 2.607499994E-02
 5.733100232E-03 2.674500085E-02
 6.577800028E-03 2.767200023E-02
 7.429100107E-03 2.875999920E-02
 8.286999539E-03 2.976099961E-02
 9.151600301E-03 3.050399944E-02
 1.002299972E-02 3.094200045E-02
 1.090100035E-02 3.114099987E-02
 1.178599987E-02 3.118900023E-02
 1.267699990E-02 3.116199933E-02
 1.357600000E-02 3.111400083E-02
 1.448099967E-02 3.106999956E-02
 1.539400034E-02 3.103400022E-02
 1.631299965E-02 3.101599962E-02
 1.723900065E-02 3.101000004E-02
 1.817299984E-02 3.101300076E-02
 1.911400072E-02 3.102199920E-02
 2.006099932E-02 3.103400022E-02
 2.101599984E-02 3.104900010E-02
 2.197900042E-02 3.106399998E-02
 2.294900082E-02 3.107899986E-02
 2.392599918E-02 3.109399974E-02
 2.490999922E-02 3.111100011E-02
 2.590199932E-02 3.112900071E-02
 2.690099925E-02 3.115000017E-02
 2.790799923E-02 3.117099963E-02
 2.892299928E-02 3.119800054E-02
 2.994499914E-02 3.122499958E-02
 3.097499907E-02 3.125499934E-02
 3.201299906E-02 3.128699958E-02
 3.305799887E-02 3.132300079E-02
 3.411199898E-02 3.136200085E-02
 3.517299891E-02 3.140399978E-02
 3.624200076E-02 3.144500032E-02
 3.731900081E-02 3.149000183E-02
 3.840399906E-02 3.154100105E-02
 3.949699923E-02 3.159099817E-02
 4.059899971E-02 3.164200112E-02
 4.170800000E-02 3.169900179E-02
 4.282600060E-02 3.175500035E-02
 4.395199940E-02 3.181499988E-02
 4.508600011E-02 3.187699988E-02
 4.622900113E-02 3.193999827E-02
 4.738000035E-02 3.200599924E-02
 4.853900149E-02 3.207400069E-02
 4.970699921E-02 3.214300051E-02
 5.088400096E-02 3.221699968E-02
 5.206900090E-02 3.228899837E-02
 5.326300114E-02 3.236600012E-02
 5.446499959E-02 3.244400024E-02
 5.567599833E-02 3.252400085E-02
 5.689600110E-02 3.260499984E-02
 5.812500045E-02 3.268799931E-02
 5.936300009E-02 3.277400136E-02
 6.061000004E-02 3.286400065E-02
 6.186499819E-02 3.295300156E-02
 6.312999874E-02 3.304599971E-02
 6.440400332E-02 3.314099833E-02
 6.568700075E-02 3.323600069E-02
 6.697899848E-02 3.333500028E-02
 6.827999651E-02 3.343300149E-02
 6.959100068E-02 3.353700042E-02
 7.091099769E-02 3.364200145E-02
 7.224000245E-02 3.374899924E-02
 7.357899845E-02 3.385600075E-02
 7.492700219E-02 3.396999836E-02
 7.628399879E-02 3.408300132E-02
 7.765199989E-02 3.419899940E-02
 7.902900130E-02 3.431500122E-02
 8.041500300E-02 3.443700075E-02
 8.181100339E-02 3.455999866E-02
 8.321700245E-02 3.468500078E-02
 8.463300020E-02 3.480999917E-02
 8.605899662E-02 3.494099900E-02
 8.749400079E-02 3.507199883E-02
 8.894000202E-02 3.520600125E-02
 9.039500356E-02 3.534299880E-02
 9.186100215E-02 3.548099846E-02
 9.333600104E-02 3.562400118E-02
 9.482199699E-02 3.576700017E-02
 9.631799906E-02 3.591600060E-02
 9.782399982E-02 3.606500104E-02
 9.933999926E-02 3.621700034E-02
 1.008699983E-01 3.637199849E-02
 1.023999974E-01 3.653300181E-02
 1.039500013E-01 3.669299930E-02
 1.055099964E-01 3.685700148E-02
 1.070799977E-01 3.702399880E-02
 1.086599976E-01 3.719399869E-02
 1.102500036E-01 3.737000003E-02
 1.118500009E-01 3.754600137E-02
 1.134599969E-01 3.772800043E-02
 1.150799990E-01 3.790900111E-02
 1.167099997E-01 3.809700161E-02
 1.183499992E-01 3.828800097E-02
 1.200100034E-01 3.848199919E-02
 1.216700003E-01 3.867800161E-02
 1.233500019E-01 3.888100013E-02
 1.250399947E-01 3.908399865E-02
 1.267299950E-01 3.929200023E-02
 1.284399927E-01 3.950700164E-02
 1.301600039E-01 3.972100094E-02
 1.318899989E-01 3.994499892E-02
 1.336400062E-01 4.016799852E-02
 1.353899986E-01 4.039800167E-02
 1.371600032E-01 4.063000157E-02
 1.389299929E-01 4.086900130E-02
 1.407199949E-01 4.111000150E-02
 1.425199956E-01 4.135800153E-02
 1.443299949E-01 4.160799831E-02
 1.461499929E-01 4.186400026E-02
 1.479800045E-01 4.212599993E-02
 1.498299986E-01 4.239200056E-02
 1.516900063E-01 4.266300052E-02
 1.535499990E-01 4.293999821E-02
 1.554300040E-01 4.321999848E-02
 1.573199928E-01 4.350899905E-02
 1.592299938E-01 4.380099848E-02
 1.611399949E-01 4.409899935E-02
 1.630699933E-01 4.440300167E-02
 1.650100052E-01 4.471600056E-02
 1.669600010E-01 4.503199831E-02
 1.689199954E-01 4.535400122E-02
 1.709000021E-01 4.568500072E-02
 1.728799939E-01 4.602200165E-02
 1.748799980E-01 4.636399820E-02
 1.768900007E-01 4.671299830E-02
 1.789100021E-01 4.707099870E-02
 1.809500009E-01 4.743700102E-02
 1.829899997E-01 4.780700058E-02
 1.850499958E-01 4.818800092E-02
 1.871200055E-01 4.857600108E-02
 1.892099977E-01 4.897199944E-02
 1.913000047E-01 4.937700182E-02
 1.934099942E-01 4.978900030E-02
 1.955299973E-01 5.021199957E-02
 1.976599991E-01 5.064399913E-02
 1.997999996E-01 5.108499900E-02
 2.019599974E-01 5.153499916E-02
 2.041299939E-01 5.199399963E-02
 2.063100040E-01 5.246499926E-02
 2.084999979E-01 5.294800177E-02
 2.107100040E-01 5.343899876E-02
 2.129299939E-01 5.394300073E-02
 2.151599973E-01 5.445599928E-02
 2.173999995E-01 5.498300120E-02
 2.196599990E-01 5.552300066E-02
 2.219299972E-01 5.607699975E-02
 2.242099941E-01 5.663999915E-02
 2.265000045E-01 5.721800029E-02
 2.288099974E-01 5.781099945E-02
 2.311300039E-01 5.841900036E-02
 2.334599942E-01 5.904199928E-02
 2.358099967E-01 5.967999995E-02
 2.381599993E-01 6.033600122E-02
 2.405299991E-01 6.100599840E-02
 2.429099977E-01 6.169499829E-02
 2.453099936E-01 6.240100041E-02
 2.477200031E-01 6.312499940E-02
 2.501400113E-01 6.386999786E-02
 2.525700033E-01 6.463599950E-02
 2.550100088E-01 6.542299688E-02
 2.574700117E-01 6.623099744E-02
 2.599399984E-01 6.705900282E-02
 2.624300122E-01 6.791400164E-02
 2.649199963E-01 6.879399717E-02
 2.674300075E-01 6.970000267E-02
 2.699500024E-01 7.063200325E-02
 2.724899948E-01 7.159200311E-02
 2.750299871E-01 7.258100063E-02
 2.775900066E-01 7.360400259E-02
 2.801600099E-01 7.465899736E-02
 2.827500105E-01 7.574900240E-02
 2.853499949E-01 7.687599957E-02
 2.879599929E-01 7.804100215E-02
 2.905800045E-01 7.924800366E-02
 2.932099998E-01 8.049999923E-02
 2.958599925E-01 8.179599792E-02
 2.985199988E-01 8.314599842E-02
 3.011899889E-01 8.454699814E-02
 3.038800061E-01 8.601000160E-02
 3.065800071E-01 8.753599972E-02
 3.092899919E-01 8.912800252E-02
 3.120099902E-01 9.079100192E-02
 3.147499859E-01 9.252499789E-02
 3.174999952E-01 9.433399886E-02
 3.202599883E-01 9.621500224E-02
 3.230299950E-01 9.816999733E-02
 3.258199990E-01 1.001999974E-01
 3.286100030E-01 1.023000032E-01
 3.314200044E-01 1.044699997E-01
 3.342500031E-01 1.067100018E-01
 3.370800018E-01 1.090200022E-01
 3.399299979E-01 1.114000008E-01
 3.427900076E-01 1.138300002E-01
 3.456600010E-01 1.163299978E-01
 3.485400081E-01 1.188800037E-01
 3.514400125E-01 1.214800030E-01
 3.543500006E-01 1.241199970E-01
 3.572700024E-01 1.268000007E-01
 3.601999879E-01 1.295199990E-01
 3.631399870E-01 1.322800070E-01
 3.661000133E-01 1.350400001E-01
 3.690699935E-01 1.378200054E-01
 3.720499873E-01 1.406400055E-01
 3.750399947E-01 1.434399933E-01
 3.780399859E-01 1.462199986E-01
 3.810499907E-01 1.490300000E-01
 3.840799928E-01 1.518000066E-01
 3.871200085E-01 1.545300037E-01
 3.901700079E-01 1.572600007E-01
 3.932299912E-01 1.599099934E-01
 3.962999880E-01 1.625500023E-01
 3.993799984E-01 1.650999933E-01
 4.024800062E-01 1.675900072E-01
 4.055800140E-01 1.700199991E-01
 4.086999893E-01 1.723400056E-01
 4.118300080E-01 1.745900065E-01
 4.149700105E-01 1.767300069E-01
 4.181199968E-01 1.787600070E-01
 4.212799966E-01 1.806800067E-01
 4.244500101E-01 1.824599952E-01
 4.276300073E-01 1.841199994E-01
 4.308199883E-01 1.856199950E-01
 4.340200126E-01 1.869799942E-01
 4.372299910E-01 1.881600022E-01
 4.404500127E-01 1.891900003E-01
 4.436799884E-01 1.900400072E-01
 4.469200075E-01 1.906599998E-01
 4.501700103E-01 1.911499947E-01
 4.534299970E-01 1.913699955E-01
 4.566999972E-01 1.914100051E-01
 4.599699974E-01 1.912399977E-01
 4.632599950E-01 1.907799989E-01
 4.665499926E-01 1.901499927E-01
 4.698500037E-01 1.892500073E-01
 4.731700122E-01 1.880400032E-01
 4.764800072E-01 1.866399944E-01
 4.798099995E-01 1.849499941E-01
 4.831500053E-01 1.829299927E-01
 4.864900112E-01 1.806499958E-01
 4.898400009E-01 1.781100035E-01
 4.931899905E-01 1.752099991E-01
 4.965600073E-01 1.719799936E-01
 4.999299943E-01 1.684799939E-01
 5.033100247E-01 1.646499932E-01
 5.066900253E-01 1.604499966E-01
 5.100799799E-01 1.559000015E-01
 5.134800076E-01 1.510200053E-01
 5.168799758E-01 1.457999945E-01
 5.202900171E-01 1.401900053E-01
 5.236999989E-01 1.341699958E-01
 5.271199942E-01 1.278100014E-01
 5.305500031E-01 1.210599989E-01
 5.339800119E-01 1.139400005E-01
 5.374199748E-01 1.063999981E-01
 5.408599973E-01 9.842900187E-02
 5.443099737E-01 9.008099884E-02
 5.477600098E-01 8.131899685E-02
 5.512199998E-01 7.214300334E-02
 5.546799898E-01 6.256199628E-02
 5.581499934E-01 5.253899843E-02
 5.616199970E-01 4.208499938E-02
 5.651000142E-01 3.121900000E-02
 5.685799718E-01 1.992700063E-02
 5.720700026E-01 8.208399639E-03
 5.755699873E-01 -3.930099774E-03
 5.790600181E-01 -1.649199985E-02
 5.825700164E-01 -2.947399952E-02
 5.860800147E-01 -4.287900031E-02
 5.895900130E-01 -5.669200048E-02
 5.931100249E-01 -7.090800256E-02
 5.966299772E-01 -8.551999927E-02
 6.001600027E-01 -1.005199999E-01
 6.036999822E-01 -1.158899963E-01
 6.072400212E-01 -1.316300035E-01
 6.107900143E-01 -1.477199942E-01
 6.143400073E-01 -1.641400009E-01
 6.179000139E-01 -1.808899939E-01
 6.214699745E-01 -1.979299933E-01
 6.250399947E-01 -2.152400017E-01
 6.286100149E-01 -2.328100055E-01
 6.322000027E-01 -2.506000102E-01
 6.357899904E-01 -2.685799897E-01
 6.393799782E-01 -2.867299914E-01
 6.429899931E-01 -3.050099909E-01
 6.466000080E-01 -3.233900070E-01
 6.502100229E-01 -3.418200016E-01
 6.538299918E-01 -3.602600098E-01
 6.574599743E-01 -3.786700070E-01
 6.610999703E-01 -3.970000148E-01
 6.647400260E-01 -4.152100086E-01
 6.683899760E-01 -4.332399964E-01
 6.720499992E-01 -4.510299861E-01
 6.757100224E-01 -4.685499966E-01
 6.793799996E-01 -4.857099950E-01
 6.830499768E-01 -5.024700165E-01
 6.867300272E-01 -5.187799931E-01
 6.904199719E-01 -5.345600247E-01
 6.941099763E-01 -5.497499704E-01
 6.978099942E-01 -5.643399954E-01
 7.015200257E-01 -5.781599879E-01
 7.052199841E-01 -5.911700130E-01
 7.089400291E-01 -6.033899784E-01
 7.126600146E-01 -6.147400141E-01
 7.163800001E-01 -6.251599789E-01
 7.200999856E-01 -6.345900297E-01
 7.238299847E-01 -6.430199742E-01
 7.275699973E-01 -6.503800154E-01
 7.312999964E-01 -6.565300226E-01
 7.350400090E-01 -6.615399718E-01
 7.387800217E-01 -6.654199958E-01
 7.425199747E-01 -6.681100130E-01
 7.462599874E-01 -6.695899963E-01
 7.500000000E-01 -6.699500084E-01
 7.537400126E-01 -6.689800024E-01
 7.574800253E-01 -6.667299867E-01
 7.612199783E-01 -6.633700132E-01
 7.649599910E-01 -6.588199735E-01
 7.687000036E-01 -6.531299949E-01
 7.724300027E-01 -6.463500261E-01
 7.761700153E-01 -6.384599805E-01
 7.799000144E-01 -6.294500232E-01
 7.836199999E-01 -6.194499731E-01
 7.873399854E-01 -6.085299850E-01
 7.910599709E-01 -5.967100263E-01
 7.947800159E-01 -5.840600133E-01
 7.984799743E-01 -5.706300139E-01
 8.021900058E-01 -5.565099716E-01
 8.058900237E-01 -5.416799784E-01
 8.095800281E-01 -5.262200236E-01
 8.132699728E-01 -5.102699995E-01
 8.169500232E-01 -4.938499928E-01
 8.206200004E-01 -4.770300090E-01
 8.242899776E-01 -4.598700106E-01
 8.279500008E-01 -4.424299896E-01
 8.316100240E-01 -4.247600138E-01
 8.352599740E-01 -4.069299996E-01
 8.389000297E-01 -3.889800012E-01
 8.425400257E-01 -3.709700108E-01
 8.461700082E-01 -3.529599905E-01
 8.497899771E-01 -3.349800110E-01
 8.533999920E-01 -3.170799911E-01
 8.570100069E-01 -2.993099988E-01
 8.606200218E-01 -2.816999853E-01
 8.642100096E-01 -2.642799914E-01
 8.677999973E-01 -2.470999956E-01
 8.713899851E-01 -2.301699966E-01
 8.749600053E-01 -2.135400027E-01
 8.785300255E-01 -1.972099990E-01
 8.820999861E-01 -1.812199950E-01
 8.856599927E-01 -1.655800045E-01
 8.892099857E-01 -1.503099948E-01
 8.927599788E-01 -1.354199946E-01
 8.963000178E-01 -1.209200025E-01
 8.998399973E-01 -1.068300009E-01
 9.033700228E-01 -9.313999861E-02
 9.068899751E-01 -7.986900210E-02
 9.104099870E-01 -6.701599807E-02
 9.139199853E-01 -5.458499864E-02
 9.174299836E-01 -4.256900027E-02
 9.209399819E-01 -3.096999973E-02
 9.244300127E-01 -1.979400031E-02
 9.279299974E-01 -9.026300162E-03
 9.314200282E-01 1.333000022E-03
 9.348999858E-01 1.128999982E-02
 9.383800030E-01 2.085400000E-02
 9.418500066E-01 3.002399951E-02
 9.453200102E-01 3.882399946E-02
 9.487800002E-01 4.724600166E-02
 9.522399902E-01 5.528999865E-02
 9.556900263E-01 6.298500299E-02
 9.591400027E-01 7.033099979E-02
 9.625800252E-01 7.732900232E-02
 9.660199881E-01 8.401399851E-02
 9.694499969E-01 9.036400169E-02
 9.728800058E-01 9.638199955E-02
 9.763000011E-01 1.020999998E-01
 9.797099829E-01 1.075100005E-01
 9.831200242E-01 1.126499996E-01
 9.865199924E-01 1.174900010E-01
 9.899200201E-01 1.220299974E-01
 9.933099747E-01 1.263100058E-01
 9.966899753E-01 1.303199977E-01
 1.000100017E+00 1.340799928E-01
 1.003399968E+00 1.375699937E-01
 1.006800056E+00 1.407999992E-01
 1.010200024E+00 1.438100040E-01
 1.013499975E+00 1.465799958E-01
 1.016899943E+00 1.490799934E-01
 1.020200014E+00 1.513700038E-01
 1.023499966E+00 1.534599960E-01
 1.026800036E+00 1.553000063E-01
 1.030099988E+00 1.569100022E-01
 1.033400059E+00 1.583600044E-01
 1.036700010E+00 1.595699936E-01
 1.039999962E+00 1.605599970E-01
 1.043300033E+00 1.614000052E-01
 1.046599984E+00 1.620199978E-01
 1.049800038E+00 1.624500006E-01
 1.053099990E+00 1.627299935E-01
 1.056300044E+00 1.627900004E-01
 1.059599996E+00 1.627199948E-01
 1.062800050E+00 1.624599993E-01
 1.065999985E+00 1.620499939E-01
 1.069200039E+00 1.614899933E-01
 1.072399974E+00 1.607600003E-01
 1.075600028E+00 1.599200070E-01
 1.078699946E+00 1.589200050E-01
 1.081900001E+00 1.578100026E-01
 1.085000038E+00 1.565700024E-01
 1.088199973E+00 1.552100033E-01
 1.091300011E+00 1.537500024E-01
 1.094400048E+00 1.521700025E-01
 1.097499967E+00 1.505199969E-01
 1.100600004E+00 1.487700045E-01
 1.103700042E+00 1.469399929E-01
 1.106799960E+00 1.450400054E-01
 1.109799981E+00 1.430599988E-01
 1.112900019E+00 1.410499960E-01
 1.115900040E+00 1.389500052E-01
 1.118899941E+00 1.368300021E-01
 1.121999979E+00 1.346700042E-01
 1.125000000E+00 1.324599981E-01
 1.128000021E+00 1.302500069E-01
 1.130900025E+00 1.280100048E-01
 1.133900046E+00 1.257500052E-01
 1.136899948E+00 1.234999970E-01
 1.139799953E+00 1.212500036E-01
 1.142699957E+00 1.190000027E-01
 1.145699978E+00 1.167500019E-01
 1.148599982E+00 1.145299971E-01
 1.151499987E+00 1.123299971E-01
 1.154299974E+00 1.101600006E-01
 1.157199979E+00 1.080100015E-01
 1.160099983E+00 1.059100032E-01
 1.162899971E+00 1.038400009E-01
 1.165799975E+00 1.018100008E-01
 1.168599963E+00 9.982399642E-02
 1.171399951E+00 9.788399935E-02
 1.174200058E+00 9.599699825E-02
 1.177000046E+00 9.416099638E-02
 1.179700017E+00 9.237600118E-02
 1.182500005E+00 9.064500034E-02
 1.185299993E+00 8.896999806E-02
 1.187999964E+00 8.734799922E-02
 1.190700054E+00 8.578100055E-02
 1.193400025E+00 8.426400274E-02
 1.196099997E+00 8.280400187E-02
 1.198799968E+00 8.139099926E-02
 1.201500058E+00 8.002600074E-02
 1.204100013E+00 7.870899886E-02
 1.206799984E+00 7.743299752E-02
 1.209400058E+00 7.619599998E-02
 1.212000012E+00 7.499799877E-02
 1.214699984E+00 7.383599877E-02
 1.217300057E+00 7.270699739E-02
 1.219799995E+00 7.161000371E-02
 1.222399950E+00 7.054600120E-02
 1.225000024E+00 6.950899959E-02
 1.227499962E+00 6.850100309E-02
 1.230000019E+00 6.752400100E-02
 1.232599974E+00 6.656999886E-02
 1.235100031E+00 6.564000249E-02
 1.237599969E+00 6.473699957E-02
 1.240100026E+00 6.385499984E-02
 1.242499948E+00 6.299699843E-02
 1.245000005E+00 6.216000021E-02
 1.247400045E+00 6.134299934E-02
 1.249899983E+00 6.054700166E-02
 1.252300024E+00 5.976900086E-02
 1.254699945E+00 5.900900066E-02
 1.257099986E+00 5.826700106E-02
 1.259500027E+00 5.754299834E-02
 1.261800051E+00 5.683699995E-02
 1.264199972E+00 5.614500120E-02
 1.266499996E+00 5.546899885E-02
 1.268900037E+00 5.480999872E-02
 1.271199942E+00 5.416399986E-02
 1.273499966E+00 5.353200063E-02
 1.275799990E+00 5.291499943E-02
 1.278100014E+00 5.230699852E-02
 1.280300021E+00 5.171699822E-02
 1.282600045E+00 5.113599822E-02
 1.284800053E+00 5.056900159E-02
 1.287099957E+00 5.001199991E-02
 1.289299965E+00 4.946700111E-02
 1.291499972E+00 4.893299937E-02
 1.293699980E+00 4.841199890E-02
 1.295899987E+00 4.789900035E-02
 1.297999978E+00 4.739499837E-02
 1.300199986E+00 4.690099880E-02
 1.302299976E+00 4.641800001E-02
 1.304499984E+00 4.594400153E-02
 1.306599975E+00 4.547899961E-02
 1.308699965E+00 4.501999915E-02
 1.310799956E+00 4.457300156E-02
 1.312899947E+00 4.413200170E-02
 1.314900041E+00 4.369999841E-02
 1.317000031E+00 4.327699915E-02
 1.319100022E+00 4.286000133E-02
 1.321099997E+00 4.245100170E-02
 1.323099971E+00 4.204899818E-02
 1.325099945E+00 4.165299982E-02
 1.327100039E+00 4.126499966E-02
 1.329100013E+00 4.088399932E-02
 1.331099987E+00 4.050799832E-02
 1.332999945E+00 4.013900086E-02
 1.335000038E+00 3.977499902E-02
 1.336899996E+00 3.942000121E-02
 1.338899970E+00 3.906900063E-02
 1.340800047E+00 3.872299939E-02
 1.342700005E+00 3.838299960E-02
 1.344599962E+00 3.804900125E-02
 1.346400023E+00 3.771900013E-02
 1.348299980E+00 3.739399835E-02
 1.350200057E+00 3.707500175E-02
 1.351999998E+00 3.676199913E-02
 1.353800058E+00 3.645199910E-02
 1.355700016E+00 3.614800051E-02
 1.357499957E+00 3.584700078E-02
 1.359300017E+00 3.555199876E-02
 1.361099958E+00 3.525999933E-02
 1.362800002E+00 3.497099876E-02
 1.364599943E+00 3.468799964E-02
 1.366400003E+00 3.441099823E-02
 1.368100047E+00 3.413299844E-02
 1.369799972E+00 3.386199847E-02
 1.371600032E+00 3.359400108E-02
 1.373299956E+00 3.333200142E-02
 1.375000000E+00 3.307000175E-02
 1.376700044E+00 3.281300142E-02
 1.378299952E+00 3.255999833E-02
 1.379999995E+00 3.231000155E-02
 1.381600022E+00 3.206200153E-02
 1.383299947E+00 3.181799874E-02
 1.384899974E+00 3.157600015E-02
 1.386500001E+00 3.133799881E-02
 1.388200045E+00 3.110300004E-02
 1.389799953E+00 3.086999990E-02
 1.391299963E+00 3.064100072E-02
 1.392899990E+00 3.041400015E-02
 1.394500017E+00 3.019100055E-02
 1.396000028E+00 2.996999957E-02
 1.397600055E+00 2.975299954E-02
 1.399099946E+00 2.953499928E-02
 1.400699973E+00 2.931999974E-02
 1.402199984E+00 2.910899930E-02
 1.403699994E+00 2.889999934E-02
 1.405200005E+00 2.869199961E-02
 1.406700015E+00 2.848899923E-02
 1.408100009E+00 2.828600071E-02
 1.409600019E+00 2.808400057E-02
 1.411100030E+00 2.788699977E-02
 1.412500024E+00 2.769000083E-02
 1.413900018E+00 2.749300003E-02
 1.415400028E+00 2.730300091E-02
 1.416800022E+00 2.710900083E-02
 1.418200016E+00 2.692100033E-02
 1.419600010E+00 2.673400007E-02
 1.421000004E+00 2.654599957E-02
 1.422299981E+00 2.636099979E-02
 1.423699975E+00 2.617900074E-02
 1.425099969E+00 2.599699982E-02
 1.426399946E+00 2.581899986E-02
 1.427800059E+00 2.563999966E-02
 1.429100037E+00 2.546400018E-02
 1.430400014E+00 2.528499998E-02
 1.431699991E+00 2.511199936E-02
 1.432999969E+00 2.493900061E-02
 1.434299946E+00 2.476700023E-02
 1.435600042E+00 2.459700033E-02
 1.436900020E+00 2.442399971E-02
 1.438099980E+00 2.425700054E-02
 1.439399958E+00 2.408700064E-02
 1.440600038E+00 2.391999960E-02
 1.441900015E+00 2.375599928E-02
 1.443099976E+00 2.358900011E-02
 1.444300056E+00 2.342499979E-02
 1.445500016E+00 2.326199971E-02
 1.446699977E+00 2.309799939E-02
 1.447900057E+00 2.293699980E-02
 1.449100018E+00 2.277299948E-02
 1.450299978E+00 2.261199988E-02
 1.451500058E+00 2.245100029E-02
 1.452600002E+00 2.229000069E-02
 1.453799963E+00 2.212899923E-02
 1.454900026E+00 2.197100036E-02
 1.455999970E+00 2.181000076E-02
 1.457200050E+00 2.165200002E-02
 1.458299994E+00 2.149100043E-02
 1.459400058E+00 2.133299969E-02
 1.460500002E+00 2.117200010E-02
 1.461599946E+00 2.101100050E-02
 1.462700009E+00 2.085400000E-02
 1.463799953E+00 2.069300041E-02
 1.464800000E+00 2.053200081E-02
 1.465899944E+00 2.037099935E-02
 1.466899991E+00 2.020999976E-02
 1.468000054E+00 2.004599944E-02
 1.468999982E+00 1.988199912E-02
 1.470100045E+00 1.971800067E-02
 1.471099973E+00 1.955099963E-02
 1.472100019E+00 1.938400045E-02
 1.473099947E+00 1.921699941E-02
 1.474099994E+00 1.904500090E-02
 1.475100040E+00 1.887499914E-02
 1.476099968E+00 1.869899966E-02
 1.477100015E+00 1.852300018E-02
 1.478000045E+00 1.834399998E-02
 1.478999972E+00 1.815900020E-02
 1.479900002E+00 1.797500066E-02
 1.480900049E+00 1.778399944E-02
 1.481799960E+00 1.758999936E-02
 1.482800007E+00 1.739099994E-02
 1.483700037E+00 1.718500070E-02
 1.484599948E+00 1.697300002E-02
 1.485499978E+00 1.675299928E-02
 1.486400008E+00 1.652600057E-02
 1.487300038E+00 1.628799923E-02
 1.488199949E+00 1.603700034E-02
 1.489099979E+00 1.577199996E-02
 1.490000010E+00 1.548899990E-02
 1.490800023E+00 1.519399974E-02
 1.491700053E+00 1.488099992E-02
 1.492599964E+00 1.454699971E-02
 1.493399978E+00 1.417800039E-02
 1.494300008E+00 1.373399980E-02
 1.495100021E+00 1.314700022E-02
 1.495900035E+00 1.233300008E-02
 1.496799946E+00 1.127499994E-02
 1.497599959E+00 1.006499957E-02
 1.498399973E+00 9.120400064E-03
 1.499199986E+00 8.223299868E-03
 1.500000000E+00 9.522699751E-03
zone, t="FUN3D"
 2.780639759E-16 4.900937900E-02
 7.999999798E-04 2.135751024E-02
 1.606264967E-03 2.781092934E-02
 2.418837277E-03 2.540435456E-02
 3.237759229E-03 2.649466135E-02
 4.063073546E-03 2.638326026E-02
 4.894822836E-03 2.666073292E-02
 5.733050406E-03 2.665714547E-02
 6.577799562E-03 2.663181908E-02
 7.429112680E-03 2.643196844E-02
 8.287033997E-03 2.608008683E-02
 9.151606821E-03 2.562619001E-02
 1.002287492E-02 2.531725354E-02
 1.090088207E-02 2.549496666E-02
 1.178567298E-02 2.639952675E-02
 1.267729141E-02 2.793990448E-02
 1.357578207E-02 2.971576713E-02
 1.448118873E-02 3.125178814E-02
 1.539355703E-02 3.227628767E-02
 1.631293073E-02 3.280230984E-02
 1.723935641E-02 3.298038244E-02
 1.817287691E-02 3.296484798E-02
 1.911354065E-02 3.286542743E-02
 2.006139047E-02 3.274340555E-02
 2.101647109E-02 3.262582049E-02
 2.197883092E-02 3.252105042E-02
 2.294851467E-02 3.242932260E-02
 2.392556891E-02 3.234855831E-02
 2.491003834E-02 3.227683529E-02
 2.590196952E-02 3.221300244E-02
 2.690140903E-02 3.215654939E-02
 2.790840343E-02 3.210733831E-02
 2.892299928E-02 3.206543252E-02
 2.994524129E-02 3.203092888E-02
 3.097517975E-02 3.200374916E-02
 3.201285750E-02 3.198374808E-02
 3.305832669E-02 3.197067231E-02
 3.411163017E-02 3.196420521E-02
 3.517281637E-02 3.196403384E-02
 3.624192998E-02 3.196978942E-02
 3.731902316E-02 3.198113665E-02
 3.840414062E-02 3.199765831E-02
 3.949733078E-02 3.201908618E-02
 4.059864208E-02 3.204514831E-02
 4.170811921E-02 3.207553923E-02
 4.282581061E-02 3.211002797E-02
 4.395176470E-02 3.214840591E-02
 4.508602992E-02 3.219047189E-02
 4.622865468E-02 3.223603591E-02
 4.737968370E-02 3.228494525E-02
 4.853916913E-02 3.233709186E-02
 4.970715567E-02 3.239235282E-02
 5.088369548E-02 3.245061263E-02
 5.206883326E-02 3.251177073E-02
 5.326262116E-02 3.257574141E-02
 5.446510017E-02 3.264246136E-02
 5.567632616E-02 3.271187842E-02
 5.689634383E-02 3.278394043E-02
 5.812519789E-02 3.285860270E-02
 5.936294422E-02 3.293581679E-02
 6.060962752E-02 3.301554546E-02
 6.186529621E-02 3.309774771E-02
 6.312999874E-02 3.318240866E-02
 6.440377980E-02 3.326951340E-02
 6.568669528E-02 3.335905820E-02
 6.697878242E-02 3.345103934E-02
 6.828010082E-02 3.354545683E-02
 6.959069520E-02 3.364231065E-02
 7.091061771E-02 3.374157846E-02
 7.223990560E-02 3.384324163E-02
 7.357861102E-02 3.394731879E-02
 7.492678612E-02 3.405381367E-02
 7.628447562E-02 3.416278213E-02
 7.765173167E-02 3.427425772E-02
 7.902859896E-02 3.438825905E-02
 8.041512221E-02 3.450480103E-02
 8.181135356E-02 3.462387249E-02
 8.321733773E-02 3.474544734E-02
 8.463312685E-02 3.486943245E-02
 8.605875820E-02 3.499577940E-02
 8.749429882E-02 3.512454778E-02
 8.893977106E-02 3.525583819E-02
 9.039524198E-02 3.538970277E-02
 9.186074883E-02 3.552616388E-02
 9.333634377E-02 3.566532210E-02
 9.482206404E-02 3.580726311E-02
 9.631796926E-02 3.595199436E-02
 9.782408923E-02 3.609953821E-02
 9.934049100E-02 3.625000641E-02
 1.008672044E-01 3.640341386E-02
 1.024042815E-01 3.655974939E-02
 1.039517671E-01 3.671913967E-02
 1.055097058E-01 3.688161448E-02
 1.070781425E-01 3.704714775E-02
 1.086571217E-01 3.721588105E-02
 1.102466956E-01 3.738785163E-02
 1.118469015E-01 3.756305575E-02
 1.134577915E-01 3.774163127E-02
 1.150793955E-01 3.792359307E-02
 1.167117655E-01 3.810897470E-02
 1.183549538E-01 3.829790279E-02
 1.200089902E-01 3.849037364E-02
 1.216739267E-01 3.868650272E-02
 1.233498007E-01 3.888635337E-02
 1.250366569E-01 3.908993304E-02
 1.267345399E-01 3.929738700E-02
 1.284434944E-01 3.950874135E-02
 1.301635504E-01 3.972410038E-02
 1.318947524E-01 3.994356468E-02
 1.336371601E-01 4.016715661E-02
 1.353907883E-01 4.039503634E-02
 1.371556818E-01 4.062721506E-02
 1.389319003E-01 4.086383432E-02
 1.407194734E-01 4.110498354E-02
 1.425184160E-01 4.135071859E-02
 1.443288028E-01 4.160119593E-02
 1.461506635E-01 4.185646400E-02
 1.479840279E-01 4.211667553E-02
 1.498289257E-01 4.238189012E-02
 1.516854167E-01 4.265226424E-02
 1.535535157E-01 4.292788729E-02
 1.554332823E-01 4.320888594E-02
 1.573247313E-01 4.349540919E-02
 1.592279077E-01 4.378755018E-02
 1.611428410E-01 4.408548027E-02
 1.630695611E-01 4.438929632E-02
 1.650081277E-01 4.469918087E-02
 1.669585407E-01 4.501524940E-02
 1.689208597E-01 4.533767700E-02
 1.708951145E-01 4.566660151E-02
 1.728813201E-01 4.600220546E-02
 1.748795062E-01 4.634463415E-02
 1.768897325E-01 4.669408873E-02
 1.789119989E-01 4.705072567E-02
 1.809463501E-01 4.741474614E-02
 1.829928160E-01 4.778634012E-02
 1.850514114E-01 4.816571996E-02
 1.871221811E-01 4.855309427E-02
 1.892051548E-01 4.894868284E-02
 1.913003325E-01 4.935270548E-02
 1.934077740E-01 4.976540059E-02
 1.955274791E-01 5.018701032E-02
 1.976594776E-01 5.061778799E-02
 1.998037994E-01 5.105800554E-02
 2.019604743E-01 5.150791630E-02
 2.041295022E-01 5.196783319E-02
 2.063109279E-01 5.243802443E-02
 2.085047662E-01 5.291882530E-02
 2.107110322E-01 5.341053382E-02
 2.129297554E-01 5.391351506E-02
 2.151609361E-01 5.442809686E-02
 2.174046040E-01 5.495467409E-02
 2.196607888E-01 5.549360812E-02
 2.219294906E-01 5.604531616E-02
 2.242107242E-01 5.661020055E-02
 2.265045196E-01 5.718872324E-02
 2.288108766E-01 5.778131261E-02
 2.311298251E-01 5.838848650E-02
 2.334613651E-01 5.901072174E-02
 2.358054966E-01 5.964855850E-02
 2.381622493E-01 6.030256674E-02
 2.405316383E-01 6.097330526E-02
 2.429136485E-01 6.166143343E-02
 2.453083098E-01 6.236756966E-02
 2.477156222E-01 6.309244782E-02
 2.501356006E-01 6.383674592E-02
 2.525682449E-01 6.460128725E-02
 2.550135255E-01 6.538684666E-02
 2.574715018E-01 6.619431823E-02
 2.599421442E-01 6.702461094E-02
 2.624254823E-01 6.787870079E-02
 2.649214864E-01 6.875765324E-02
 2.674301565E-01 6.966254860E-02
 2.699515224E-01 7.059463114E-02
 2.724855542E-01 7.155515999E-02
 2.750322521E-01 7.254556566E-02
 2.775916159E-01 7.356730103E-02
 2.801636457E-01 7.462204248E-02
 2.827483416E-01 7.571154088E-02
 2.853456736E-01 7.683773339E-02
 2.879556417E-01 7.800275832E-02
 2.905782461E-01 7.920894027E-02
 2.932134569E-01 8.045900613E-02
 2.958613038E-01 8.175604045E-02
 2.985217273E-01 8.310381323E-02
 3.011947274E-01 8.450656384E-02
 3.038803041E-01 8.596884459E-02
 3.065784574E-01 8.749486506E-02
 3.092890978E-01 8.908795565E-02
 3.120122850E-01 9.075076878E-02
 3.147479594E-01 9.248518199E-02
 3.174961209E-01 9.429263324E-02
 3.202567399E-01 9.617391974E-02
 3.230297565E-01 9.812950343E-02
 3.258152306E-01 1.001591906E-01
 3.286130428E-01 1.022622362E-01
 3.314232230E-01 1.044372469E-01
 3.342457414E-01 1.066820547E-01
 3.370805681E-01 1.089931130E-01
 3.399276435E-01 1.113687009E-01
 3.427869678E-01 1.138069704E-01
 3.456584811E-01 1.163034812E-01
 3.485421836E-01 1.188565120E-01
 3.514380157E-01 1.214573383E-01
 3.543459177E-01 1.241007671E-01
 3.572659194E-01 1.267860979E-01
 3.601979017E-01 1.295108497E-01
 3.631418645E-01 1.322633773E-01
 3.660977483E-01 1.350331903E-01
 3.690654933E-01 1.378226727E-01
 3.720450699E-01 1.406331509E-01
 3.750364482E-01 1.434344947E-01
 3.780395389E-01 1.462288201E-01
 3.810542822E-01 1.490336508E-01
 3.840806186E-01 1.517993361E-01
 3.871185184E-01 1.545422971E-01
 3.901678622E-01 1.572669297E-01
 3.932286203E-01 1.599233001E-01
 3.963007331E-01 1.625619084E-01
 3.993840814E-01 1.651175916E-01
 4.024785757E-01 1.676092595E-01
 4.055841863E-01 1.700376570E-01
 4.087007940E-01 1.723671108E-01
 4.118283093E-01 1.746190339E-01
 4.149666429E-01 1.767580062E-01
 4.181156456E-01 1.787946522E-01
 4.212752879E-01 1.807106286E-01
 4.244453907E-01 1.824950725E-01
 4.276258647E-01 1.841547787E-01
 4.308166206E-01 1.856513768E-01
 4.340174794E-01 1.870194077E-01
 4.372283220E-01 1.881993711E-01
 4.404490292E-01 1.892256588E-01
 4.436794519E-01 1.900721639E-01
 4.469194710E-01 1.907015741E-01
 4.501688778E-01 1.911836863E-01
 4.534275532E-01 1.914109290E-01
 4.566953778E-01 1.914535165E-01
 4.599721134E-01 1.912759095E-01
 4.632576406E-01 1.908274889E-01
 4.665518105E-01 1.901916862E-01
 4.698544145E-01 1.892832220E-01
 4.731652737E-01 1.880896091E-01
 4.764842689E-01 1.866801381E-01
 4.798111618E-01 1.849768907E-01
 4.831458032E-01 1.829692572E-01
 4.864880145E-01 1.806930900E-01
 4.898376465E-01 1.781352609E-01
 4.931944907E-01 1.752400547E-01
 4.965583980E-01 1.720242500E-01
 4.999292195E-01 1.685181856E-01
 5.033067465E-01 1.646761745E-01
 5.066908002E-01 1.604729742E-01
 5.100812912E-01 1.559290141E-01
 5.134780407E-01 1.510464996E-01
 5.168808699E-01 1.458175033E-01
 5.202897191E-01 1.401954889E-01
 5.237043500E-01 1.341871768E-01
 5.271247625E-01 1.278270185E-01
 5.305507779E-01 1.210739687E-01
 5.339823365E-01 1.139455289E-01
 5.374191999E-01 1.063940674E-01
 5.408614874E-01 9.843105078E-02