# Convergence of drag with grid size
variables="N","h^2=1/N","h=sqrt(1/N)","C_L","C_D","C_Dp","C_Dv"
zone, t="CFL3D"
901120.  1.10973e-6  1.05344e-3  0.37522241316E-01  0.53989783045E-02  0.59130407808E-03  0.48076742264E-02
225280.  4.43892e-6  2.10687e-3  0.37423114301E-01  0.53944256662E-02  0.59112092895E-03  0.48033047373E-02
 56320.  1.77557e-5  4.21375e-3  0.37214567310E-01  0.53978568859E-02  0.61009777395E-03  0.47877591119E-02
 14080.  7.10227e-5  8.42750e-3  0.36752777462E-01  0.55434935905E-02  0.79700452850E-03  0.47464890620E-02
  3520.  2.84091e-4  1.68550e-2  0.35281221858E-01  0.68263189933E-02  0.21889387570E-02  0.46373802363E-02
zone, t="FUN3D"
901120.  1.10973e-6  1.05344e-3  0.3758303E-01  0.5379078E-02  0.5926576E-03  0.4786421E-02
225280.  4.43892e-6  2.10687e-3  0.3760567E-01  0.5372068E-02  0.5936965E-03  0.4778372E-02
 56320.  1.77557e-5  4.21375e-3  0.3761835E-01  0.5347405E-02  0.6118818E-03  0.4735523E-02
 14080.  7.10227e-5  8.42750e-3  0.3765996E-01  0.5402662E-02  0.7604596E-03  0.4642202E-02
  3520.  2.84091e-4  1.68550e-2  0.3771353E-01  0.6071107E-02  0.1636185E-02  0.4434922E-02

