VARIABLES = "x","utau"
ZONE T="CFL3D high Re channel, SA-QCR2000"
 0.000000000E+00 3.425373435E-01
 3.906250000E+00 2.758350410E-02
 7.812500000E+00 2.588690259E-02
 1.171875000E+01 2.539558709E-02
 1.562500000E+01 2.516872063E-02
 1.953125000E+01 2.504264563E-02
 2.343750000E+01 2.496898361E-02
 2.734375000E+01 2.492685989E-02
 3.125000000E+01 2.490674891E-02
 3.515625000E+01 2.490295097E-02
 3.906250000E+01 2.491184510E-02
 4.296875000E+01 2.493082359E-02
 4.687500000E+01 2.495794557E-02
 5.078125000E+01 2.499172650E-02
 5.468750000E+01 2.503106184E-02
 5.859375000E+01 2.507531829E-02
 6.250000000E+01 2.512421273E-02
 6.640625000E+01 2.517756820E-02
 7.031250000E+01 2.523489296E-02
 7.421875000E+01 2.529508621E-02
 7.812500000E+01 2.535643801E-02
 8.203125000E+01 2.541686967E-02
 8.593750000E+01 2.547436208E-02
 8.984375000E+01 2.552725375E-02
 9.375000000E+01 2.557444200E-02
 9.765625000E+01 2.561541088E-02
 1.015625000E+02 2.565014921E-02
 1.054687500E+02 2.567903325E-02
 1.093750000E+02 2.570268884E-02
 1.132812500E+02 2.572186664E-02
 1.171875000E+02 2.573737502E-02
 1.210937500E+02 2.574995346E-02
 1.250000000E+02 2.576028928E-02
 1.289062500E+02 2.576897666E-02
 1.328125000E+02 2.577649057E-02
 1.367187500E+02 2.578322217E-02
 1.406250000E+02 2.578947321E-02
 1.445312500E+02 2.579547279E-02
 1.484375000E+02 2.580138296E-02
 1.523437500E+02 2.580733225E-02
 1.562500000E+02 2.581339143E-02
 1.601562500E+02 2.581960522E-02
 1.640625000E+02 2.582600340E-02
 1.679687500E+02 2.583259717E-02
 1.718750000E+02 2.583936974E-02
 1.757812500E+02 2.584632486E-02
 1.796875000E+02 2.585344017E-02
 1.835937500E+02 2.586068958E-02
 1.875000000E+02 2.586806566E-02
 1.914062500E+02 2.587554231E-02
 1.953125000E+02 2.588310465E-02
 1.992187500E+02 2.589073218E-02
 2.031250000E+02 2.589841560E-02
 2.070312500E+02 2.590613626E-02
 2.109375000E+02 2.591389045E-02
 2.148437500E+02 2.592167072E-02
 2.187500000E+02 2.592946589E-02
 2.226562500E+02 2.593727596E-02
 2.265625000E+02 2.594509162E-02
 2.304687500E+02 2.595291659E-02
 2.343750000E+02 2.596074343E-02
 2.382812500E+02 2.596857771E-02
 2.421875000E+02 2.597641200E-02
 2.460937500E+02 2.598425001E-02
 2.500000000E+02 2.599209361E-02
 2.539062500E+02 2.599993348E-02
 2.578125000E+02 2.600778081E-02
 2.617187500E+02 2.601563185E-02
 2.656250000E+02 2.602349222E-02
 2.695312500E+02 2.603135630E-02
 2.734375000E+02 2.603921853E-02
 2.773437500E+02 2.604709566E-02
 2.812500000E+02 2.605497465E-02
 2.851562500E+02 2.606285922E-02
 2.890625000E+02 2.607075311E-02
 2.929687500E+02 2.607865259E-02
 2.968750000E+02 2.608656138E-02
 3.007812500E+02 2.609447762E-02
 3.046875000E+02 2.610239945E-02
 3.085937500E+02 2.611033246E-02
 3.125000000E+02 2.611826733E-02
 3.164062500E+02 2.612620778E-02
 3.203125000E+02 2.613416687E-02
 3.242187500E+02 2.614212409E-02
 3.281250000E+02 2.615009248E-02
 3.320312500E+02 2.615806647E-02
 3.359375000E+02 2.616604790E-02
 3.398437500E+02 2.617404051E-02
 3.437500000E+02 2.618203685E-02
 3.476562500E+02 2.619003877E-02
 3.515625000E+02 2.619805187E-02
 3.554687500E+02 2.620607428E-02
 3.593750000E+02 2.621409670E-02
 3.632812500E+02 2.622213960E-02
 3.671875000E+02 2.623018064E-02
 3.710937500E+02 2.623823285E-02
 3.750000000E+02 2.624629065E-02
 3.789062500E+02 2.625435591E-02
 3.828125000E+02 2.626243047E-02
 3.867187500E+02 2.627051435E-02
 3.906250000E+02 2.627860382E-02
 3.945312500E+02 2.628670074E-02
 3.984375000E+02 2.629480138E-02
 4.023437500E+02 2.630291507E-02
 4.062500000E+02 2.631103620E-02
 4.101562500E+02 2.631916106E-02
 4.140625000E+02 2.632729709E-02
 4.179687500E+02 2.633544430E-02
 4.218750000E+02 2.634359151E-02
 4.257812500E+02 2.635175176E-02
 4.296875000E+02 2.635991573E-02
 4.335937500E+02 2.636808902E-02
 4.375000000E+02 2.637627348E-02
 4.414062500E+02 2.638446353E-02
 4.453125000E+02 2.639266104E-02
 4.492187500E+02 2.640086971E-02
 4.531250000E+02 2.640907839E-02
 4.570312500E+02 2.641730383E-02
 4.609375000E+02 2.642553113E-02
 4.648437500E+02 2.643376775E-02
 4.687500000E+02 2.644201368E-02
 4.726562500E+02 2.645026892E-02
 4.765625000E+02 2.645852789E-02
 4.804687500E+02 2.646679804E-02
 4.843750000E+02 2.647507563E-02
 4.882812500E+02 2.648336068E-02
 4.921875000E+02 2.649165317E-02
 4.960937500E+02 2.649995312E-02
 5.000000000E+02 2.650827169E-02
 5.039062500E+02 2.651659958E-02
 5.078306274E+02 2.652496845E-02
 5.117912903E+02 2.653342858E-02
 5.158066406E+02 2.654200792E-02
 5.198953247E+02 2.655075863E-02
 5.240762329E+02 2.655971609E-02
 5.283687744E+02 2.656892128E-02
 5.327928467E+02 2.657841891E-02
 5.373690796E+02 2.658825181E-02
 5.421185303E+02 2.659847774E-02
 5.470632935E+02 2.660912275E-02
 5.522263184E+02 2.662026137E-02
 5.576315308E+02 2.663193643E-02
 5.633039551E+02 2.664420567E-02
 5.692699585E+02 2.665713057E-02
 5.755571899E+02 2.667076886E-02
 5.821947632E+02 2.668518759E-02
 5.892135010E+02 2.670046315E-02
 5.966459961E+02 2.671667188E-02
 6.045266113E+02 2.673388459E-02
 6.128919067E+02 2.675220184E-02
 6.217807007E+02 2.677169628E-02
 6.312342529E+02 2.679248527E-02
 6.412963867E+02 2.681466565E-02
 6.520137329E+02 2.683834918E-02
 6.634359741E+02 2.686364949E-02
 6.756160889E+02 2.689079940E-02
 6.886105957E+02 2.691959590E-02
 7.024796753E+02 2.695087157E-02
 7.172877197E+02 2.698281780E-02
 7.331033936E+02 2.701994963E-02
