VARIABLES = "y","uvplus","uuplus","vvplus","wwplus","kplus","log10(y+)"
ZONE T="CFL3D high Re channel, SSG/LRR-RSM-w2012"
 0.000000000E+00 0.000000000E+00 0.000000000E+00 0.000000000E+00 0.000000000E+00 0.000000000E+00 -2.000000000E+01
 5.000000058E-08 -3.505271096E-08 9.537941423E-07 9.974268096E-07 9.749619494E-07 1.463091394E-06 -9.727319479E-01
 1.027955108E-07 -4.434935192E-07 7.930983884E-06 7.502296739E-06 7.701904906E-06 1.156759299E-05 -6.597278118E-01
 1.585428322E-07 -2.580914952E-06 3.398560875E-05 3.141350317E-05 3.261079837E-05 4.900495696E-05 -4.715553522E-01
 2.174069920E-07 -9.866365872E-06 1.022692595E-04 9.229088027E-05 9.693593165E-05 1.457480394E-04 -3.344284594E-01
 2.795622720E-07 -2.896541628E-05 2.476959198E-04 2.179293951E-04 2.317862818E-04 3.487057984E-04 -2.252234071E-01
 3.451926602E-07 -7.118126086E-05 5.199234001E-04 4.455147719E-04 4.801534524E-04 7.227958413E-04 -1.336404234E-01
 4.144924333E-07 -1.541556412E-04 9.873314993E-04 8.232889813E-04 8.996539400E-04 1.355137210E-03 -5.418536440E-02
 4.876667958E-07 -3.039269068E-04 1.741978689E-03 1.412558253E-03 1.565910061E-03 2.360223560E-03 1.642123610E-02
 5.649323498E-07 -5.573674571E-04 2.905554604E-03 2.289965283E-03 2.576533239E-03 3.886026563E-03 8.029448241E-02
 6.465178330E-07 -9.650128195E-04 4.636405036E-03 3.550026333E-03 4.055761732E-03 6.121096667E-03 1.388785541E-01
 7.326647733E-07 -1.594258239E-03 7.137610577E-03 5.307884421E-03 6.159666926E-03 9.302580729E-03 1.932033598E-01
 8.236281701E-07 -2.532866318E-03 1.066607609E-02 7.702164818E-03 9.081927128E-03 1.372508425E-02 2.440292239E-01
 9.196773476E-07 -3.892668756E-03 1.554233674E-02 1.089786924E-02 1.305996254E-02 1.975008473E-02 2.919335067E-01
 1.021096637E-06 -5.813234951E-03 2.216066234E-02 1.508911885E-02 1.838105544E-02 2.781541832E-02 3.373648822E-01
 1.128186341E-06 -8.465233259E-03 3.099867143E-02 2.050133422E-02 2.538800612E-02 3.844400495E-02 3.806788921E-01
 1.241263476E-06 -1.205290575E-02 4.262475297E-02 2.739225700E-02 3.448325396E-02 5.225013196E-02 4.221620262E-01
 1.360662736E-06 -1.681536250E-02 5.770347640E-02 3.605210781E-02 4.613126814E-02 6.994342804E-02 4.620485306E-01
 1.486737574E-06 -2.302602120E-02 7.699598372E-02 4.680189118E-02 6.085778400E-02 9.232783318E-02 5.005323291E-01
 1.619861223E-06 -3.098867834E-02 1.013510823E-01 5.998771265E-02 7.924310118E-02 1.202909499E-01 5.377758741E-01
 1.760427836E-06 -4.102950916E-02 1.316848546E-01 7.597114146E-02 1.019069031E-01 1.547814459E-01 5.739162564E-01
 1.908853619E-06 -5.348453671E-02 1.689493209E-01 9.511612356E-02 1.294868588E-01 1.967761517E-01 6.090706587E-01
 2.065577746E-06 -6.868330389E-02 2.140880674E-01 1.177717373E-01 1.626088768E-01 2.472343445E-01 6.433395743E-01
 2.231064627E-06 -8.692400903E-02 2.679663599E-01 1.442455947E-01 2.018399090E-01 3.070259392E-01 6.768101454E-01
 2.405803571E-06 -1.084444225E-01 3.312886059E-01 1.747737974E-01 2.476345897E-01 3.768484890E-01 7.095581889E-01
 2.590312306E-06 -1.333952248E-01 4.045229554E-01 2.094946653E-01 3.002844751E-01 4.571510553E-01 7.416501641E-01
 2.785136758E-06 -1.618069261E-01 4.878014624E-01 2.484137863E-01 3.598529398E-01 5.480340719E-01 7.731445432E-01
 2.990854000E-06 -1.935679018E-01 5.808497071E-01 2.913816273E-01 4.261339009E-01 6.491826177E-01 8.040932417E-01
 3.208072712E-06 -2.284102440E-01 6.829425097E-01 3.380786180E-01 4.986189306E-01 7.598200440E-01 8.345422149E-01
 3.437436135E-06 -2.659075558E-01 7.928915024E-01 3.880127072E-01 5.764914751E-01 8.786978722E-01 8.645326495E-01
 3.679623433E-06 -3.054981232E-01 9.091075659E-01 4.405429363E-01 6.586691141E-01 1.004159808E+00 8.941013813E-01
 3.935351288E-06 -3.465168178E-01 1.029682755E+00 4.949094057E-01 7.438564897E-01 1.134224296E+00 9.232815504E-01
 4.205376626E-06 -3.882376552E-01 1.152519584E+00 5.502827168E-01 8.306347132E-01 1.266718507E+00 9.521029592E-01
 4.490499123E-06 -4.299317896E-01 1.275491834E+00 6.058179736E-01 9.175640345E-01 1.399436951E+00 9.805926681E-01
 4.791562787E-06 -4.709172249E-01 1.396588922E+00 6.607097983E-01 1.003275514E+00 1.530287147E+00 1.008775234E+00
 5.109458471E-06 -5.105941296E-01 1.514035225E+00 7.142398953E-01 1.086558700E+00 1.657416940E+00 1.036672950E+00
 5.445127954E-06 -5.484788418E-01 1.626381159E+00 7.658030987E-01 1.166417956E+00 1.779301167E+00 1.064306140E+00
 5.799564860E-06 -5.842190981E-01 1.732549071E+00 8.149296045E-01 1.242098093E+00 1.894788384E+00 1.091693521E+00
 6.173817837E-06 -6.175864935E-01 1.831826329E+00 8.612920046E-01 1.313093305E+00 2.003105879E+00 1.118851900E+00
 6.568995104E-06 -6.484691501E-01 1.923839569E+00 9.046918750E-01 1.379123449E+00 2.103827477E+00 1.145797014E+00
 6.986266271E-06 -6.768510342E-01 2.008504629E+00 9.450414777E-01 1.440102458E+00 2.196824312E+00 1.172543168E+00
 7.426867342E-06 -7.027921677E-01 2.085963964E+00 9.823476076E-01 1.496100783E+00 2.282206059E+00 1.199103713E+00
 7.892102076E-06 -7.264091372E-01 2.156526804E+00 1.016689897E+00 1.547305107E+00 2.360260963E+00 1.225490689E+00
 8.383347449E-06 -7.478513718E-01 2.220607996E+00 1.048199177E+00 1.593977809E+00 2.431392431E+00 1.251715541E+00
 8.902057743E-06 -7.672855854E-01 2.278689861E+00 1.077039123E+00 1.636429071E+00 2.496078968E+00 1.277788401E+00
 9.449769095E-06 -7.848863602E-01 2.331278801E+00 1.103391886E+00 1.674994230E+00 2.554832458E+00 1.303719163E+00
 1.002810313E-05 -8.008298278E-01 2.378880024E+00 1.127447844E+00 1.710011840E+00 2.608169794E+00 1.329516768E+00
 1.063877062E-05 -8.152773380E-01 2.421978474E+00 1.149394035E+00 1.741806388E+00 2.656589508E+00 1.355189443E+00
 1.128357962E-05 -8.283812404E-01 2.461031914E+00 1.169417620E+00 1.770687819E+00 2.700568676E+00 1.380744934E+00
 1.196444009E-05 -8.402843475E-01 2.496461153E+00 1.187692523E+00 1.796948075E+00 2.740550995E+00 1.406190395E+00
 1.268336564E-05 -8.511114120E-01 2.528642893E+00 1.204379320E+00 1.820848942E+00 2.776935577E+00 1.431532502E+00
 1.344248631E-05 -8.609754443E-01 2.557919979E+00 1.219627619E+00 1.842627287E+00 2.810087442E+00 1.456777692E+00
 1.424404854E-05 -8.699775338E-01 2.584600925E+00 1.233575583E+00 1.862502813E+00 2.840339661E+00 1.481931448E+00
 1.509042431E-05 -8.782050610E-01 2.608955383E+00 1.246346116E+00 1.880665660E+00 2.867983580E+00 1.506999493E+00
 1.598412018E-05 -8.857377768E-01 2.631220579E+00 1.258050919E+00 1.897286415E+00 2.893279076E+00 1.531986833E+00
 1.692778096E-05 -8.926466703E-01 2.651611805E+00 1.268792152E+00 1.912520528E+00 2.916462183E+00 1.556898117E+00
 1.792419971E-05 -8.989911079E-01 2.670316219E+00 1.278660655E+00 1.926501393E+00 2.937739134E+00 1.581737757E+00
 1.897632683E-05 -9.048259258E-01 2.687500238E+00 1.287737012E+00 1.939351678E+00 2.957294464E+00 1.606510162E+00
 2.008727643E-05 -9.101997614E-01 2.703311205E+00 1.296092749E+00 1.951179504E+00 2.975291729E+00 1.631219029E+00
 2.126033542E-05 -9.151557088E-01 2.717877150E+00 1.303796411E+00 1.962077737E+00 2.991875648E+00 1.655868173E+00
 2.249897989E-05 -9.197311997E-01 2.731316566E+00 1.310906768E+00 1.972133636E+00 3.007178545E+00 1.680460811E+00
 2.380687329E-05 -9.239612222E-01 2.743731737E+00 1.317474961E+00 1.981424093E+00 3.021315336E+00 1.705000401E+00
 2.518788642E-05 -9.278760552E-01 2.755213976E+00 1.323548555E+00 1.990015626E+00 3.034389019E+00 1.729489803E+00
 2.664611020E-05 -9.315021038E-01 2.765846014E+00 1.329170942E+00 1.997969866E+00 3.046493530E+00 1.753931880E+00
 2.818585745E-05 -9.348650575E-01 2.775700808E+00 1.334380865E+00 2.005342007E+00 3.057711840E+00 1.778329253E+00
 2.981168836E-05 -9.379868507E-01 2.784844398E+00 1.339212894E+00 2.012182474E+00 3.068120003E+00 1.802684665E+00
 3.152841600E-05 -9.408871531E-01 2.793336868E+00 1.343698740E+00 2.018532991E+00 3.077784300E+00 1.827000141E+00
 3.334111534E-05 -9.435834289E-01 2.801231861E+00 1.347866893E+00 2.024434090E+00 3.086766481E+00 1.851278186E+00
 3.525516149E-05 -9.460916519E-01 2.808576107E+00 1.351741791E+00 2.029924393E+00 3.095121145E+00 1.875520706E+00
 3.727621151E-05 -9.484267831E-01 2.815413713E+00 1.355347276E+00 2.035034418E+00 3.102897644E+00 1.899729848E+00
 3.941024988E-05 -9.506037831E-01 2.821784258E+00 1.358704805E+00 2.039793730E+00 3.110141277E+00 1.923907280E+00
 4.166359577E-05 -9.526333809E-01 2.827723742E+00 1.361832619E+00 2.044231892E+00 3.116894245E+00 1.948054790E+00
 4.404291394E-05 -9.545270205E-01 2.833266497E+00 1.364749432E+00 2.048371315E+00 3.123193741E+00 1.972174048E+00
 4.655524754E-05 -9.562944770E-01 2.838439703E+00 1.367471218E+00 2.052232981E+00 3.129071951E+00 1.996266723E+00
 4.920803622E-05 -9.579444528E-01 2.843270302E+00 1.370010138E+00 2.055839062E+00 3.134559631E+00 2.020334005E+00
 5.200912346E-05 -9.594866633E-01 2.847784042E+00 1.372380495E+00 2.059208632E+00 3.139686584E+00 2.044377565E+00
 5.496680751E-05 -9.609282613E-01 2.852003813E+00 1.374597311E+00 2.062356949E+00 3.144479036E+00 2.068398476E+00
 5.808983406E-05 -9.622762799E-01 2.855949879E+00 1.376669288E+00 2.065300941E+00 3.148960114E+00 2.092398167E+00
 6.138745084E-05 -9.635369182E-01 2.859641790E+00 1.378605127E+00 2.068056107E+00 3.153151512E+00 2.116377592E+00
 6.486941857E-05 -9.647163749E-01 2.863097906E+00 1.380417585E+00 2.070632935E+00 3.157074213E+00 2.140337944E+00
 6.854603271E-05 -9.658215046E-01 2.866333485E+00 1.382113218E+00 2.073044538E+00 3.160745621E+00 2.164280415E+00
 7.242817810E-05 -9.668561816E-01 2.869362116E+00 1.383700609E+00 2.075303793E+00 3.164183140E+00 2.188205481E+00
 7.652734348E-05 -9.678237438E-01 2.872198582E+00 1.385187149E+00 2.077417850E+00 3.167401791E+00 2.212114573E+00
 8.085565787E-05 -9.687303305E-01 2.874856472E+00 1.386578560E+00 2.079397917E+00 3.170416355E+00 2.236008406E+00
 8.542592695E-05 -9.695804119E-01 2.877346039E+00 1.387880564E+00 2.081253529E+00 3.173240185E+00 2.259887695E+00
 9.025168401E-05 -9.703766704E-01 2.879677057E+00 1.389100552E+00 2.082992792E+00 3.175885201E+00 2.283753395E+00
 9.534719720E-05 -9.711217880E-01 2.881863117E+00 1.390244603E+00 2.084621429E+00 3.178364515E+00 2.307605982E+00
 1.007275423E-04 -9.718208313E-01 2.883910179E+00 1.391315460E+00 2.086145878E+00 3.180685759E+00 2.331446171E+00
 1.064086391E-04 -9.724758863E-01 2.885828257E+00 1.392318249E+00 2.087575197E+00 3.182860851E+00 2.355274916E+00
 1.124073024E-04 -9.730885625E-01 2.887625933E+00 1.393257499E+00 2.088913441E+00 3.184898376E+00 2.379092455E+00
 1.187412781E-04 -9.736624360E-01 2.889308214E+00 1.394137740E+00 2.090167046E+00 3.186806440E+00 2.402899742E+00
 1.254292874E-04 -9.741999507E-01 2.890883923E+00 1.394961357E+00 2.091341019E+00 3.188593149E+00 2.426697016E+00
 1.324911427E-04 -9.747031927E-01 2.892359257E+00 1.395731091E+00 2.092439413E+00 3.190264940E+00 2.450484991E+00
 1.399477187E-04 -9.751736522E-01 2.893739700E+00 1.396453142E+00 2.093467951E+00 3.191830397E+00 2.474263906E+00
 1.478210761E-04 -9.756141901E-01 2.895030499E+00 1.397129297E+00 2.094429016E+00 3.193294525E+00 2.498034477E+00
 1.561344980E-04 -9.760264754E-01 2.896237135E+00 1.397759676E+00 2.095327854E+00 3.194662333E+00 2.521796942E+00
 1.649125625E-04 -9.764114022E-01 2.897364616E+00 1.398348451E+00 2.096168280E+00 3.195940733E+00 2.545551777E+00
 1.741812594E-04 -9.767697453E-01 2.898416996E+00 1.398899436E+00 2.096952915E+00 3.197134733E+00 2.569299459E+00
 1.839679753E-04 -9.771035314E-01 2.899398804E+00 1.399413109E+00 2.097684860E+00 3.198248386E+00 2.593040228E+00
 1.943016832E-04 -9.774159789E-01 2.900313377E+00 1.399891734E+00 2.098366499E+00 3.199285746E+00 2.616774559E+00
 2.052128984E-04 -9.777074456E-01 2.901164532E+00 1.400336742E+00 2.099000216E+00 3.200250626E+00 2.640502691E+00
 2.167339117E-04 -9.779757857E-01 2.901955366E+00 1.400750756E+00 2.099590063E+00 3.201148033E+00 2.664224863E+00
 2.288987744E-04 -9.782256484E-01 2.902688980E+00 1.401135683E+00 2.100137472E+00 3.201981068E+00 2.687941551E+00
 2.417434735E-04 -9.784587026E-01 2.903368235E+00 1.401492357E+00 2.100644350E+00 3.202752590E+00 2.711652756E+00
 2.553059603E-04 -9.786733389E-01 2.903996706E+00 1.401820898E+00 2.101112366E+00 3.203464985E+00 2.735358953E+00
 2.696263255E-04 -9.788702130E-01 2.904576063E+00 1.402124643E+00 2.101544142E+00 3.204122543E+00 2.759060383E+00
 2.847469004E-04 -9.790520668E-01 2.905109167E+00 1.402405381E+00 2.101941586E+00 3.204728127E+00 2.782757044E+00
 3.007123596E-04 -9.792190194E-01 2.905596733E+00 1.402661562E+00 2.102306128E+00 3.205282211E+00 2.806449413E+00
 3.175699385E-04 -9.793708920E-01 2.906042099E+00 1.402894616E+00 2.102638960E+00 3.205787897E+00 2.830137491E+00
 3.353693755E-04 -9.795086980E-01 2.906446457E+00 1.403108358E+00 2.102940083E+00 3.206247330E+00 2.853821516E+00
 3.541633196E-04 -9.796323180E-01 2.906810284E+00 1.403300881E+00 2.103213072E+00 3.206662178E+00 2.877501726E+00
 3.740072716E-04 -9.797436595E-01 2.907138824E+00 1.403473973E+00 2.103458643E+00 3.207035780E+00 2.901178122E+00
 3.949598467E-04 -9.798434377E-01 2.907430649E+00 1.403629541E+00 2.103677034E+00 3.207368612E+00 2.924850941E+00
 4.170829197E-04 -9.799318314E-01 2.907686710E+00 1.403765559E+00 2.103868723E+00 3.207660437E+00 2.948520422E+00
 4.404418578E-04 -9.800078273E-01 2.907909632E+00 1.403883934E+00 2.104035616E+00 3.207914591E+00 2.972186565E+00
 4.651056079E-04 -9.800723791E-01 2.908098459E+00 1.403984666E+00 2.104178905E+00 3.208131075E+00 2.995849609E+00
 4.911469878E-04 -9.801263213E-01 2.908255816E+00 1.404069662E+00 2.104297400E+00 3.208311558E+00 3.019509554E+00
 5.186428898E-04 -9.801695943E-01 2.908383369E+00 1.404138803E+00 2.104393005E+00 3.208457470E+00 3.043166399E+00
 5.476744263E-04 -9.802032709E-01 2.908480883E+00 1.404191852E+00 2.104466438E+00 3.208569527E+00 3.066820621E+00
 5.783273373E-04 -9.802263975E-01 2.908547401E+00 1.404230714E+00 2.104517937E+00 3.208647966E+00 3.090471745E+00
 6.106920191E-04 -9.802396894E-01 2.908584833E+00 1.404253960E+00 2.104548216E+00 3.208693504E+00 3.114120245E+00
 6.448639324E-04 -9.802433848E-01 2.908593893E+00 1.404261112E+00 2.104557276E+00 3.208706141E+00 3.137766123E+00
 6.809438928E-04 -9.802373052E-01 2.908575058E+00 1.404254317E+00 2.104545116E+00 3.208687305E+00 3.161409378E+00
 7.190382457E-04 -9.802216291E-01 2.908528566E+00 1.404233456E+00 2.104511976E+00 3.208636999E+00 3.185050011E+00
 7.592592738E-04 -9.801969528E-01 2.908454895E+00 1.404198289E+00 2.104458570E+00 3.208555937E+00 3.208688259E+00
 8.017256041E-04 -9.801627994E-01 2.908352852E+00 1.404149175E+00 2.104384661E+00 3.208443403E+00 3.232323885E+00
 8.465623250E-04 -9.801187515E-01 2.908222675E+00 1.404085875E+00 2.104289770E+00 3.208299160E+00 3.255956888E+00
 8.939015097E-04 -9.800651670E-01 2.908064365E+00 1.404008389E+00 2.104174376E+00 3.208123684E+00 3.279587746E+00
 9.438825655E-04 -9.800017476E-01 2.907877684E+00 1.403915048E+00 2.104038954E+00 3.207915783E+00 3.303215981E+00
 9.966526413E-04 -9.799296260E-01 2.907664776E+00 1.403807521E+00 2.103883028E+00 3.207677603E+00 3.326841831E+00
 1.052367152E-03 -9.798485041E-01 2.907423258E+00 1.403686166E+00 2.103705168E+00 3.207407236E+00 3.350465298E+00
 1.111189835E-03 -9.797569513E-01 2.907152176E+00 1.403548717E+00 2.103506088E+00 3.207103491E+00 3.374086380E+00
 1.173293800E-03 -9.796547294E-01 2.906852007E+00 1.403397202E+00 2.103286028E+00 3.206767559E+00 3.397704840E+00
 1.238861703E-03 -9.795438051E-01 2.906522274E+00 1.403229952E+00 2.103042841E+00 3.206397533E+00 3.421320915E+00
 1.308086095E-03 -9.794222116E-01 2.906162262E+00 1.403046608E+00 2.102776766E+00 3.205992699E+00 3.444934368E+00
 1.381170470E-03 -9.792883396E-01 2.905770063E+00 1.402847528E+00 2.102487803E+00 3.205552578E+00 3.468545198E+00
 1.458329381E-03 -9.791437387E-01 2.905346394E+00 1.402631640E+00 2.102175951E+00 3.205076933E+00 3.492153645E+00
 1.539789373E-03 -9.789904952E-01 2.904890060E+00 1.402399063E+00 2.101839304E+00 3.204564095E+00 3.515759468E+00
 1.625789446E-03 -9.788248539E-01 2.904399872E+00 1.402148843E+00 2.101477146E+00 3.204012871E+00 3.539362431E+00
 1.716581639E-03 -9.786451459E-01 2.903873205E+00 1.401880026E+00 2.101088524E+00 3.203420877E+00 3.562962532E+00
 1.812432194E-03 -9.784538746E-01 2.903310061E+00 1.401592731E+00 2.100672722E+00 3.202787876E+00 3.586559772E+00
 1.913621789E-03 -9.782510996E-01 2.902710676E+00 1.401286125E+00 2.100229502E+00 3.202113152E+00 3.610154152E+00
 2.020446584E-03 -9.780343175E-01 2.902071953E+00 1.400958300E+00 2.099756956E+00 3.201393604E+00 3.633745432E+00
 2.133219270E-03 -9.778034687E-01 2.901391506E+00 1.400610089E+00 2.099253893E+00 3.200627804E+00 3.657333612E+00
 2.252269303E-03 -9.775584936E-01 2.900669575E+00 1.400241017E+00 2.098720551E+00 3.199815512E+00 3.680918455E+00
 2.377944766E-03 -9.772984982E-01 2.899903774E+00 1.399848819E+00 2.098154783E+00 3.198953629E+00 3.704499722E+00
 2.510612598E-03 -9.770227075E-01 2.899091244E+00 1.399431825E+00 2.097554684E+00 3.198038816E+00 3.728077650E+00
 2.650659299E-03 -9.767309427E-01 2.898230076E+00 1.398990512E+00 2.096918583E+00 3.197069645E+00 3.751652002E+00
 2.798493486E-03 -9.764216542E-01 2.897318840E+00 1.398523211E+00 2.096244335E+00 3.196043253E+00 3.775222301E+00
 2.954545664E-03 -9.760945439E-01 2.896355629E+00 1.398028731E+00 2.095532179E+00 3.194958210E+00 3.798788786E+00
 3.119269852E-03 -9.757491350E-01 2.895336866E+00 1.397507191E+00 2.094779253E+00 3.193811655E+00 3.822350979E+00
 3.293144517E-03 -9.753842950E-01 2.894260645E+00 1.396955490E+00 2.093983650E+00 3.192599773E+00 3.845908880E+00
 3.476674901E-03 -9.749982357E-01 2.893123865E+00 1.396371961E+00 2.093142748E+00 3.191319227E+00 3.869462013E+00
 3.670393024E-03 -9.745910168E-01 2.891922474E+00 1.395755887E+00 2.092255116E+00 3.189966679E+00 3.893010616E+00
 3.874860471E-03 -9.741626978E-01 2.890654802E+00 1.395106316E+00 2.091318369E+00 3.188539743E+00 3.916554213E+00
 4.090668634E-03 -9.737088680E-01 2.889318705E+00 1.394420743E+00 2.090329409E+00 3.187034369E+00 3.940092325E+00
 4.318441264E-03 -9.732294083E-01 2.887909412E+00 1.393696308E+00 2.089285851E+00 3.185445786E+00 3.963624954E+00
 4.558835644E-03 -9.727252126E-01 2.886422634E+00 1.392932057E+00 2.088186026E+00 3.183770418E+00 3.987151861E+00
 4.812544212E-03 -9.721937180E-01 2.884854078E+00 1.392127156E+00 2.087026119E+00 3.182003736E+00 4.010672569E+00
 5.080298055E-03 -9.716323018E-01 2.883199692E+00 1.391279459E+00 2.085803509E+00 3.180141449E+00 4.034187317E+00
 5.362865049E-03 -9.710409045E-01 2.881455421E+00 1.390383959E+00 2.084514380E+00 3.178176880E+00 4.057694912E+00
 5.661056843E-03 -9.704178572E-01 2.879617691E+00 1.389440775E+00 2.083154202E+00 3.176106453E+00 4.081195354E+00
 5.975726526E-03 -9.697611332E-01 2.877681494E+00 1.388447523E+00 2.081722021E+00 3.173925400E+00 4.104688644E+00
 6.307773292E-03 -9.690684080E-01 2.875640154E+00 1.387399554E+00 2.080213070E+00 3.171626329E+00 4.128174305E+00
 6.658144295E-03 -9.683386087E-01 2.873489618E+00 1.386296153E+00 2.078623056E+00 3.169204473E+00 4.151651382E+00
 7.027836051E-03 -9.675709009E-01 2.871223450E+00 1.385134459E+00 2.076947451E+00 3.166652679E+00 4.175119877E+00
 7.417899556E-03 -9.667609930E-01 2.868834972E+00 1.383910179E+00 2.075182199E+00 3.163963795E+00 4.198578835E+00
 7.829438895E-03 -9.659077525E-01 2.866318703E+00 1.382619739E+00 2.073321581E+00 3.161129951E+00 4.222028732E+00
 8.263616823E-03 -9.650105238E-01 2.863667488E+00 1.381260753E+00 2.071362257E+00 3.158145189E+00 4.245468140E+00
 8.721658029E-03 -9.640639424E-01 2.860873222E+00 1.379830241E+00 2.069298029E+00 3.155000687E+00 4.268897057E+00
 9.204849601E-03 -9.630661607E-01 2.857931137E+00 1.378324032E+00 2.067123652E+00 3.151689529E+00 4.292314529E+00
 9.714545682E-03 -9.620164633E-01 2.854831219E+00 1.376737475E+00 2.064832926E+00 3.148200750E+00 4.315720558E+00
 1.025216933E-02 -9.609102607E-01 2.851565599E+00 1.375066280E+00 2.062420607E+00 3.144526243E+00 4.339113712E+00
 1.081921905E-02 -9.597449899E-01 2.848126411E+00 1.373306990E+00 2.059881210E+00 3.140657425E+00 4.362493992E+00
 1.141726784E-02 -9.585180283E-01 2.844503164E+00 1.371455193E+00 2.057205200E+00 3.136581898E+00 4.385860443E+00
 1.204796880E-02 -9.572259188E-01 2.840687752E+00 1.369505525E+00 2.054387331E+00 3.132290363E+00 4.409211636E+00
 1.271305978E-02 -9.558643103E-01 2.836669445E+00 1.367452741E+00 2.051420689E+00 3.127771378E+00 4.432548046E+00
 1.341436524E-02 -9.544302821E-01 2.832437038E+00 1.365291595E+00 2.048296213E+00 3.123012543E+00 4.455868244E+00
 1.415379997E-02 -9.529221058E-01 2.827979803E+00 1.363017559E+00 2.045007467E+00 3.118002415E+00 4.479171276E+00
 1.493337471E-02 -9.513339400E-01 2.823285580E+00 1.360623717E+00 2.041544676E+00 3.112726927E+00 4.502456188E+00
 1.575519890E-02 -9.496608377E-01 2.818342209E+00 1.358104467E+00 2.037898064E+00 3.107172489E+00 4.525722027E+00
 1.662148349E-02 -9.478998184E-01 2.813138247E+00 1.355453968E+00 2.034060240E+00 3.101326227E+00 4.548967838E+00
 1.753455028E-02 -9.460462332E-01 2.807658911E+00 1.352665186E+00 2.030019999E+00 3.095171928E+00 4.572192669E+00
 1.849682815E-02 -9.440947771E-01 2.801888943E+00 1.349730849E+00 2.025767088E+00 3.088693380E+00 4.595395088E+00
 1.951086149E-02 -9.420401454E-01 2.795814753E+00 1.346644163E+00 2.021291018E+00 3.081874847E+00 4.618574619E+00
 2.057931945E-02 -9.398781061E-01 2.789422035E+00 1.343397975E+00 2.016581774E+00 3.074700832E+00 4.641728878E+00
 2.170499042E-02 -9.376022220E-01 2.782693386E+00 1.339984059E+00 2.011626482E+00 3.067152023E+00 4.664857864E+00
 2.289079316E-02 -9.352082014E-01 2.775610209E+00 1.336393952E+00 2.006411791E+00 3.059207916E+00 4.687958717E+00
 2.413977683E-02 -9.326899648E-01 2.768155813E+00 1.332618833E+00 2.000925779E+00 3.050850153E+00 4.711031437E+00
 2.545513213E-02 -9.300394654E-01 2.760313034E+00 1.328648806E+00 1.995154977E+00 3.042058468E+00 4.734073162E+00
 2.684018575E-02 -9.272513390E-01 2.752061605E+00 1.324475884E+00 1.989086032E+00 3.032811642E+00 4.757083416E+00
 2.829840966E-02 -9.243196249E-01 2.743380070E+00 1.320092320E+00 1.982703328E+00 3.023087978E+00 4.780060291E+00
 2.983342856E-02 -9.212354422E-01 2.734247923E+00 1.315485716E+00 1.975991845E+00 3.012862682E+00 4.803001404E+00
 3.144901618E-02 -9.179925919E-01 2.724644661E+00 1.310645580E+00 1.968936682E+00 3.002113342E+00 4.825905323E+00
 3.314910084E-02 -9.145830274E-01 2.714545488E+00 1.305562019E+00 1.961520076E+00 2.990813732E+00 4.848769665E+00
 3.493777290E-02 -9.109988809E-01 2.703927040E+00 1.300222874E+00 1.953725815E+00 2.978937864E+00 4.871593475E+00
 3.681927919E-02 -9.072324038E-01 2.692765951E+00 1.294617534E+00 1.945536137E+00 2.966459751E+00 4.894373417E+00
 3.879803419E-02 -9.032744169E-01 2.681035280E+00 1.288733482E+00 1.936931968E+00 2.953350306E+00 4.917107582E+00
 4.087861627E-02 -8.991172910E-01 2.668707371E+00 1.282557607E+00 1.927895546E+00 2.939580202E+00 4.939794064E+00
 4.306577146E-02 -8.947502971E-01 2.655757427E+00 1.276078463E+00 1.918406248E+00 2.925121069E+00 4.962430477E+00
 4.536440969E-02 -8.901638389E-01 2.642154694E+00 1.269282818E+00 1.908443213E+00 2.909940243E+00 4.985013485E+00
 4.777960852E-02 -8.853472471E-01 2.627869606E+00 1.262156487E+00 1.897986531E+00 2.894006252E+00 5.007540703E+00
 5.031661317E-02 -8.802924752E-01 2.612872124E+00 1.254685402E+00 1.887013316E+00 2.877285480E+00 5.030009270E+00
 5.298083276E-02 -8.749891520E-01 2.597131252E+00 1.246856213E+00 1.875501871E+00 2.859744549E+00 5.052416801E+00
 5.577782914E-02 -8.694248796E-01 2.580614805E+00 1.238653302E+00 1.863430142E+00 2.841349125E+00 5.074759483E+00
 5.871332809E-02 -8.635889888E-01 2.563288927E+00 1.230062485E+00 1.850773811E+00 2.822062492E+00 5.097034931E+00
 6.179320812E-02 -8.574699759E-01 2.545120716E+00 1.221068501E+00 1.837508559E+00 2.801848888E+00 5.119238853E+00
 6.502348185E-02 -8.510574102E-01 2.526074171E+00 1.211654902E+00 1.823610544E+00 2.780669689E+00 5.141368389E+00
 6.841030717E-02 -8.443379402E-01 2.506114006E+00 1.201807380E+00 1.809054494E+00 2.758487940E+00 5.163419724E+00
 7.195995748E-02 -8.373000622E-01 2.485204458E+00 1.191510081E+00 1.793815851E+00 2.735265255E+00 5.185389042E+00
 7.567882538E-02 -8.299316168E-01 2.463308811E+00 1.180747032E+00 1.777867556E+00 2.710961819E+00 5.207272530E+00
 7.957340032E-02 -8.222191334E-01 2.440390110E+00 1.169502616E+00 1.761181593E+00 2.685537100E+00 5.229065895E+00
 8.365026116E-02 -8.141512275E-01 2.416408777E+00 1.157759905E+00 1.743735790E+00 2.658952236E+00 5.250765324E+00
 8.791604638E-02 -8.057138920E-01 2.391328573E+00 1.145502925E+00 1.725502372E+00 2.631166935E+00 5.272366047E+00
 9.237742424E-02 -7.968946099E-01 2.365112305E+00 1.132716775E+00 1.706452966E+00 2.602140903E+00 5.293863773E+00
 9.704111516E-02 -7.876819968E-01 2.337720394E+00 1.119385600E+00 1.686562419E+00 2.571834087E+00 5.315253735E+00
 1.019138172E-01 -7.780609727E-01 2.309116364E+00 1.105494022E+00 1.665804386E+00 2.540207386E+00 5.336531162E+00
 1.070021912E-01 -7.680204511E-01 2.279265404E+00 1.091028929E+00 1.644154668E+00 2.507224560E+00 5.357690811E+00
 1.123128459E-01 -7.575477958E-01 2.248129606E+00 1.075974703E+00 1.621586919E+00 2.472845554E+00 5.378727436E+00
 1.178522855E-01 -7.466281652E-01 2.215671539E+00 1.060317039E+00 1.598073959E+00 2.437031269E+00 5.399636269E+00
 1.236268878E-01 -7.352513671E-01 2.181859493E+00 1.044044256E+00 1.573594570E+00 2.399749279E+00 5.420411110E+00
 1.296428591E-01 -7.234057188E-01 2.146663666E+00 1.027144551E+00 1.548127890E+00 2.360968113E+00 5.441046715E+00
 1.359061599E-01 -7.110795379E-01 2.110049963E+00 1.009607315E+00 1.521649122E+00 2.320653200E+00 5.461537361E+00
 1.424225569E-01 -6.982610226E-01 2.071993828E+00 9.914247990E-01 1.494140506E+00 2.278779507E+00 5.481876850E+00
 1.491974443E-01 -6.849407554E-01 2.032474518E+00 9.725910425E-01 1.465586424E+00 2.235326052E+00 5.502059460E+00
 1.562358886E-01 -6.711096764E-01 1.991466761E+00 9.530969262E-01 1.435966134E+00 2.190264940E+00 5.522078991E+00
 1.635425538E-01 -6.567577124E-01 1.948956370E+00 9.329396486E-01 1.405269504E+00 2.143582821E+00 5.541928768E+00
 1.711216122E-01 -6.418776512E-01 1.904935598E+00 9.121185541E-01 1.373486042E+00 2.095270157E+00 5.561603069E+00
 1.789767593E-01 -6.264629960E-01 1.859397411E+00 8.906337619E-01 1.340608478E+00 2.045319796E+00 5.581094742E+00
 1.871110946E-01 -6.105081439E-01 1.812344432E+00 8.684905767E-01 1.306633711E+00 1.993734360E+00 5.600397587E+00
 1.955270767E-01 -5.940070152E-01 1.763785601E+00 8.456950784E-01 1.271560192E+00 1.940520406E+00 5.619504929E+00
 2.042264938E-01 -5.769573450E-01 1.713740587E+00 8.222562671E-01 1.235391974E+00 1.885694385E+00 5.638410091E+00
 2.132103890E-01 -5.593582988E-01 1.662240982E+00 7.981901765E-01 1.198138952E+00 1.829285026E+00 5.657106400E+00
 2.224789858E-01 -5.412101746E-01 1.609328866E+00 7.735133171E-01 1.159816980E+00 1.771329641E+00 5.675587177E+00
 2.320316732E-01 -5.225115418E-01 1.555054903E+00 7.482456565E-01 1.120442033E+00 1.711871266E+00 5.693845272E+00
 2.418669462E-01 -5.032684803E-01 1.499498606E+00 7.224188447E-01 1.080045581E+00 1.650981545E+00 5.711874485E+00
 2.519823015E-01 -4.834846854E-01 1.442742229E+00 6.960604787E-01 1.038654447E+00 1.588728547E+00 5.729668140E+00
 2.623743117E-01 -4.631684721E-01 1.384899139E+00 6.692063212E-01 9.963071346E-01 1.525206327E+00 5.747219563E+00
 2.730384767E-01 -4.423266053E-01 1.326106191E+00 6.419005990E-01 9.530527592E-01 1.460529804E+00 5.764522076E+00
 2.839691937E-01 -4.209736884E-01 1.266559243E+00 6.142228842E-01 9.089816213E-01 1.394881845E+00 5.781569481E+00
 2.951598167E-01 -3.991183043E-01 1.206588864E+00 5.863862634E-01 8.643277287E-01 1.328651428E+00 5.798355103E+00
 3.066026270E-01 -3.767798245E-01 1.146748662E+00 5.588289499E-01 8.196167946E-01 1.262597203E+00 5.814873695E+00
 3.182887435E-01 -3.539712727E-01 1.087623239E+00 5.320816636E-01 7.755446434E-01 1.197624803E+00 5.831119537E+00
 3.302081227E-01 -3.307195902E-01 1.029699445E+00 5.065960288E-01 7.328014374E-01 1.134548426E+00 5.847085953E+00
 3.423497379E-01 -3.070400059E-01 9.732972980E-01 4.826612473E-01 6.919343472E-01 1.073946476E+00 5.862768173E+00
 3.547013402E-01 -2.829644382E-01 9.186763167E-01 4.604277015E-01 6.533422470E-01 1.016223192E+00 5.878160954E+00
 3.672497272E-01 -2.585063875E-01 8.660300970E-01 4.399259686E-01 6.172495484E-01 9.616028070E-01 5.893259525E+00
 3.799806535E-01 -2.337089777E-01 8.156021833E-01 4.211129546E-01 5.837576985E-01 9.102364182E-01 5.908059597E+00
 3.928788900E-01 -2.085843533E-01 7.676137686E-01 4.038810134E-01 5.528411865E-01 8.621679544E-01 5.922556877E+00
 4.059282839E-01 -1.831817478E-01 7.223364711E-01 3.880732059E-01 5.243911743E-01 8.174004555E-01 5.936747551E+00
 4.191119075E-01 -1.575093269E-01 6.800232530E-01 3.734885454E-01 4.982245564E-01 7.758681774E-01 5.950627804E+00
 4.324120283E-01 -1.316258758E-01 6.407636404E-01 3.596961200E-01 4.739417434E-01 7.372007370E-01 5.964195728E+00
 4.458103180E-01 -1.055328548E-01 6.047711968E-01 3.462490737E-01 4.512751698E-01 7.011477351E-01 5.977447987E+00
 4.592878222E-01 -7.928641886E-02 5.746845603E-01 3.345174193E-01 4.320337176E-01 6.706178188E-01 5.990383148E+00
 4.728251100E-01 -5.293591693E-02 5.531326532E-01 3.260763884E-01 4.181430936E-01 6.486760378E-01 6.002998352E+00
 4.864025116E-01 -2.649823017E-02 5.403095484E-01 3.210043311E-01 4.097589552E-01 6.355364323E-01 6.015294075E+00
 5.000000000E-01 -3.545572326E-05 5.363587141E-01 3.193258941E-01 4.069768786E-01 6.313307285E-01 6.027267933E+00
 5.135974884E-01 2.644193731E-02 5.413066745E-01 3.210402429E-01 4.098066390E-01 6.360768080E-01 6.038920879E+00
 5.271748900E-01 5.286693573E-02 5.552485585E-01 3.261816800E-01 4.182922542E-01 6.498612165E-01 6.050252914E+00
 5.407121778E-01 7.922958583E-02 5.780746341E-01 3.347116411E-01 4.323390722E-01 6.725626588E-01 6.061264038E+00
 5.541896820E-01 1.054689288E-01 6.081993580E-01 3.457690775E-01 4.508697093E-01 7.024190426E-01 6.071956635E+00
 5.675879717E-01 1.315540373E-01 6.430125237E-01 3.580091000E-01 4.721270204E-01 7.365742922E-01 6.082331181E+00