VARIABLES = "y","b12","b11","b22","b33"
ZONE T="CFL3D high Re channel, SSG/LRR-RSM-w2012"
 5.000000058E-08 -1.197899040E-02 -7.381661795E-03 7.529477123E-03 -1.477151964E-04
 1.027954966E-07 -1.916964911E-02 9.477177635E-03 -9.052492678E-03 -4.245841992E-04
 1.585428038E-07 -2.633320913E-02 1.342354994E-02 -1.281975955E-02 -6.036955747E-04
 2.174070062E-07 -3.384733945E-02 1.750936918E-02 -1.672223955E-02 -7.870306727E-04
 2.795623004E-07 -4.153274000E-02 2.183130942E-02 -2.085012011E-02 -9.810908232E-04
 3.451926887E-07 -4.924023151E-02 2.632801980E-02 -2.514475957E-02 -1.183161978E-03
 4.144924048E-07 -5.687823892E-02 3.095879033E-02 -2.956739999E-02 -1.391291968E-03
 4.876667958E-07 -6.438519806E-02 3.569503129E-02 -3.409082070E-02 -1.604111982E-03
 5.649322929E-07 -7.171431184E-02 4.051316157E-02 -3.869232163E-02 -1.820735051E-03
 6.465177762E-07 -7.882679254E-02 4.539009184E-02 -4.335042089E-02 -2.039575018E-03
 7.326647733E-07 -8.568903059E-02 5.030275136E-02 -4.804234952E-02 -2.260297071E-03
 8.236282270E-07 -9.227143228E-02 5.522809923E-02 -5.274613947E-02 -2.481862903E-03
 9.196772908E-07 -9.854815900E-02 6.014189869E-02 -5.743905157E-02 -2.702749101E-03
 1.021096978E-06 -1.044965982E-01 6.501883268E-02 -6.209670007E-02 -2.922029933E-03
 1.128186000E-06 -1.100981981E-01 6.983319670E-02 -6.669438630E-02 -3.138709115E-03
 1.241263021E-06 -1.153384969E-01 7.455805689E-02 -7.120709866E-02 -3.350853920E-03
 1.360662964E-06 -1.202068999E-01 7.916778326E-02 -7.560995966E-02 -3.557716031E-03
 1.486738029E-06 -1.246970966E-01 8.363732696E-02 -7.987836003E-02 -3.758871928E-03
 1.619860996E-06 -1.288072020E-01 8.794146776E-02 -8.398904651E-02 -3.952311818E-03
 1.760427949E-06 -1.325401068E-01 9.205635637E-02 -8.791907132E-02 -4.137183074E-03
 1.908854074E-06 -1.359020025E-01 9.595988691E-02 -9.164720029E-02 -4.312593024E-03
 2.065577974E-06 -1.389033049E-01 9.963256866E-02 -9.515494853E-02 -4.477522802E-03
 2.231065082E-06 -1.415580958E-01 1.030571014E-01 -9.842544794E-02 -4.631571937E-03
 2.405804025E-06 -1.438833028E-01 1.062180996E-01 -1.014446020E-01 -4.773416091E-03
 2.590312079E-06 -1.458984017E-01 1.091056988E-01 -1.042025983E-01 -4.903029185E-03
 2.785136985E-06 -1.476248950E-01 1.117132977E-01 -1.066925004E-01 -5.020757206E-03
 2.990854000E-06 -1.490858942E-01 1.140367016E-01 -1.089114025E-01 -5.125259981E-03
 3.208072940E-06 -1.503054947E-01 1.160774007E-01 -1.108604968E-01 -5.216829944E-03
 3.437435907E-06 -1.513077021E-01 1.178407967E-01 -1.125447974E-01 -5.295904819E-03
 3.679622978E-06 -1.521162987E-01 1.193374991E-01 -1.139743030E-01 -5.363028962E-03
 3.935350833E-06 -1.527550071E-01 1.205817014E-01 -1.151624024E-01 -5.419129040E-03
 4.205377081E-06 -1.532454044E-01 1.215900034E-01 -1.161253005E-01 -5.464592017E-03
 4.490499123E-06 -1.536087990E-01 1.223827973E-01 -1.168826967E-01 -5.499995779E-03
 4.791562787E-06 -1.538656056E-01 1.229827031E-01 -1.174556017E-01 -5.526999012E-03
 5.109458016E-06 -1.540330946E-01 1.234121025E-01 -1.178655028E-01 -5.546519067E-03
 5.445127954E-06 -1.541275978E-01 1.236947998E-01 -1.181356013E-01 -5.559117068E-03
 5.799564860E-06 -1.541647017E-01 1.238546968E-01 -1.182883009E-01 -5.566332024E-03
 6.173817837E-06 -1.541572064E-01 1.239131987E-01 -1.183442026E-01 -5.568956956E-03
 6.568995104E-06 -1.541164964E-01 1.238903999E-01 -1.183224022E-01 -5.567948800E-03
 6.986265817E-06 -1.540521979E-01 1.238048971E-01 -1.182406992E-01 -5.564149003E-03
 7.426866887E-06 -1.539721042E-01 1.236727014E-01 -1.181143969E-01 -5.558197852E-03
 7.892102076E-06 -1.538832039E-01 1.235074997E-01 -1.179566979E-01 -5.550651811E-03
 8.383347449E-06 -1.537908018E-01 1.233201995E-01 -1.177780032E-01 -5.542166065E-03
 8.902057743E-06 -1.536982059E-01 1.231205985E-01 -1.175870970E-01 -5.533363204E-03
 9.449769095E-06 -1.536082029E-01 1.229156032E-01 -1.173911989E-01 -5.524291191E-03
 1.002810041E-05 -1.535232961E-01 1.227106005E-01 -1.171955988E-01 -5.514958873E-03
 1.063876971E-05 -1.534443945E-01 1.225102991E-01 -1.170044020E-01 -5.505758803E-03
 1.128357962E-05 -1.533716023E-01 1.223174036E-01 -1.168200970E-01 -5.497191101E-03
 1.196444009E-05 -1.533056945E-01 1.221337020E-01 -1.166447029E-01 -5.488975905E-03
 1.268337019E-05 -1.532465070E-01 1.219604984E-01 -1.164793000E-01 -5.481087137E-03
 1.344248994E-05 -1.531936973E-01 1.217984036E-01 -1.163244992E-01 -5.473877769E-03
 1.424405036E-05 -1.531466991E-01 1.216477007E-01 -1.161805019E-01 -5.467086099E-03
 1.509041977E-05 -1.531050056E-01 1.215080991E-01 -1.160472035E-01 -5.460835993E-03
 1.598412018E-05 -1.530681998E-01 1.213793010E-01 -1.159240976E-01 -5.455058999E-03
 1.692777914E-05 -1.530358940E-01 1.212605983E-01 -1.158107966E-01 -5.449652206E-03
 1.792419971E-05 -1.530072987E-01 1.211515963E-01 -1.157066971E-01 -5.444854032E-03
 1.897633047E-05 -1.529819965E-01 1.210516989E-01 -1.156112030E-01 -5.440402776E-03
 2.008728006E-05 -1.529597938E-01 1.209601983E-01 -1.155238971E-01 -5.436128005E-03
 2.126034087E-05 -1.529400945E-01 1.208762974E-01 -1.154438034E-01 -5.432357080E-03
 2.249897989E-05 -1.529226005E-01 1.207994968E-01 -1.153704002E-01 -5.428976845E-03
 2.380686965E-05 -1.529071033E-01 1.207292005E-01 -1.153033003E-01 -5.425778218E-03
 2.518789006E-05 -1.528933942E-01 1.206647977E-01 -1.152419001E-01 -5.422874819E-03
 2.664611020E-05 -1.528809965E-01 1.206059977E-01 -1.151856035E-01 -5.420255940E-03
 2.818585926E-05 -1.528699994E-01 1.205520034E-01 -1.151340008E-01 -5.417841021E-03
 2.981169018E-05 -1.528601944E-01 1.205023974E-01 -1.150868014E-01 -5.415475927E-03
 3.152841964E-05 -1.528514028E-01 1.204568967E-01 -1.150432974E-01 -5.413488019E-03
 3.334111898E-05 -1.528434008E-01 1.204153001E-01 -1.150033996E-01 -5.411817227E-03
 3.525516149E-05 -1.528359950E-01 1.203768998E-01 -1.149668023E-01 -5.410039797E-03
 3.727621151E-05 -1.528292000E-01 1.203415990E-01 -1.149331033E-01 -5.408450961E-03
 3.941024988E-05 -1.528231949E-01 1.203090996E-01 -1.149019971E-01 -5.407082848E-03
 4.166359940E-05 -1.528176963E-01 1.202791035E-01 -1.148734018E-01 -5.405607168E-03
 4.404291030E-05 -1.528127044E-01 1.202514991E-01 -1.148471013E-01 -5.404334981E-03
 4.655525117E-05 -1.528079957E-01 1.202261001E-01 -1.148225963E-01 -5.403331015E-03
 4.920803985E-05 -1.528037041E-01 1.202024966E-01 -1.148001999E-01 -5.402230192E-03
 5.200911983E-05 -1.527996957E-01 1.201808006E-01 -1.147795990E-01 -5.401104223E-03
 5.496681115E-05 -1.527961046E-01 1.201606020E-01 -1.147601977E-01 -5.400305148E-03
 5.808983042E-05 -1.527927071E-01 1.201417968E-01 -1.147421971E-01 -5.399488844E-03
 6.138745084E-05 -1.527895033E-01 1.201243997E-01 -1.147257984E-01 -5.398511887E-03
 6.486941857E-05 -1.527864933E-01 1.201084033E-01 -1.147103980E-01 -5.397874862E-03
 6.854603271E-05 -1.527837962E-01 1.200935021E-01 -1.146961004E-01 -5.397287197E-03
 7.242817810E-05 -1.527812928E-01 1.200795025E-01 -1.146828011E-01 -5.396580789E-03
 7.652734348E-05 -1.527788043E-01 1.200665012E-01 -1.146702990E-01 -5.396084860E-03
 8.085565787E-05 -1.527764946E-01 1.200544983E-01 -1.146588027E-01 -5.395626184E-03
 8.542592695E-05 -1.527744979E-01 1.200433969E-01 -1.146482006E-01 -5.395052955E-03
 9.025167674E-05 -1.527726054E-01 1.200328022E-01 -1.146382987E-01 -5.394387990E-03
 9.534719720E-05 -1.527706981E-01 1.200229973E-01 -1.146289036E-01 -5.393987056E-03
 1.007274986E-04 -1.527691036E-01 1.200139001E-01 -1.146202013E-01 -5.393648986E-03
 1.064086027E-04 -1.527675986E-01 1.200053990E-01 -1.146121025E-01 -5.393232219E-03
 1.124073024E-04 -1.527660042E-01 1.199975982E-01 -1.146045998E-01 -5.392936990E-03
 1.187413000E-04 -1.527646035E-01 1.199901029E-01 -1.145974025E-01 -5.392611958E-03
 1.254293020E-04 -1.527633071E-01 1.199832037E-01 -1.145908013E-01 -5.392270163E-03
 1.324910991E-04 -1.527621001E-01 1.199769005E-01 -1.145848036E-01 -5.391975865E-03
 1.399477042E-04 -1.527608931E-01 1.199707985E-01 -1.145789996E-01 -5.391707178E-03
 1.478211052E-04 -1.527598053E-01 1.199650988E-01 -1.145733967E-01 -5.391551182E-03
 1.561344980E-04 -1.527588964E-01 1.199598983E-01 -1.145685017E-01 -5.391324870E-03
 1.649126061E-04 -1.527581066E-01 1.199548990E-01 -1.145638004E-01 -5.391002167E-03
 1.741813030E-04 -1.527570933E-01 1.199501976E-01 -1.145593971E-01 -5.390752107E-03
 1.839680044E-04 -1.527560055E-01 1.199458987E-01 -1.145552024E-01 -5.390527193E-03
 1.943016978E-04 -1.527553052E-01 1.199418008E-01 -1.145514026E-01 -5.390346050E-03
 2.052128984E-04 -1.527547985E-01 1.199380979E-01 -1.145477965E-01 -5.390201230E-03
 2.167338971E-04 -1.527539045E-01 1.199346036E-01 -1.145445034E-01 -5.390007049E-03
 2.288988035E-04 -1.527532041E-01 1.199311987E-01 -1.145412996E-01 -5.389844067E-03
 2.417435026E-04 -1.527528018E-01 1.199280992E-01 -1.145382971E-01 -5.389700178E-03
 2.553059894E-04 -1.527522951E-01 1.199254021E-01 -1.145356968E-01 -5.389595870E-03
 2.696262964E-04 -1.527516991E-01 1.199228019E-01 -1.145332009E-01 -5.389506929E-03
 2.847469004E-04 -1.527512074E-01 1.199202985E-01 -1.145306975E-01 -5.389487837E-03
 3.007123887E-04 -1.527508050E-01 1.199180037E-01 -1.145285964E-01 -5.389298778E-03
 3.175699094E-04 -1.527504027E-01 1.199159995E-01 -1.145268008E-01 -5.389106926E-03
 3.353694046E-04 -1.527500004E-01 1.199140996E-01 -1.145247966E-01 -5.389162805E-03
 3.541632905E-04 -1.527494937E-01 1.199121997E-01 -1.145230979E-01 -5.389011931E-03
 3.740073007E-04 -1.527491063E-01 1.199105978E-01 -1.145216003E-01 -5.388922058E-03
 3.949597885E-04 -1.527487934E-01 1.199091002E-01 -1.145199984E-01 -5.388917867E-03
 4.170828906E-04 -1.527487040E-01 1.199076995E-01 -1.145187989E-01 -5.388888065E-03
 4.404418869E-04 -1.527484059E-01 1.199065968E-01 -1.145175993E-01 -5.388846155E-03
 4.651056079E-04 -1.527481973E-01 1.199053973E-01 -1.145166978E-01 -5.388644058E-03
 4.911469878E-04 -1.527480036E-01 1.199045032E-01 -1.145157963E-01 -5.388623103E-03
 5.186428898E-04 -1.527477950E-01 1.199036986E-01 -1.145149022E-01 -5.388658959E-03
 5.476744263E-04 -1.527477056E-01 1.199031025E-01 -1.145142987E-01 -5.388650112E-03
 5.783272791E-04 -1.527476013E-01 1.199024022E-01 -1.145135984E-01 -5.388646852E-03
 6.106920191E-04 -1.527474970E-01 1.199017987E-01 -1.145130992E-01 -5.388578866E-03
 6.448638742E-04 -1.527473927E-01 1.199013963E-01 -1.145128012E-01 -5.388455000E-03
 6.809438928E-04 -1.527473927E-01 1.199010983E-01 -1.145126000E-01 -5.388400983E-03
 7.190381875E-04 -1.527473927E-01 1.199010015E-01 -1.145123988E-01 -5.388442893E-03
 7.592592738E-04 -1.527473927E-01 1.199010015E-01 -1.145123988E-01 -5.388494115E-03
 8.017256041E-04 -1.527473927E-01 1.199010015E-01 -1.145123988E-01 -5.388487130E-03
 8.465623250E-04 -1.527473927E-01 1.199010015E-01 -1.145123988E-01 -5.388549995E-03
 8.939015097E-04 -1.527473927E-01 1.199012026E-01 -1.145125031E-01 -5.388571881E-03
 9.438826237E-04 -1.527473927E-01 1.199013963E-01 -1.145128980E-01 -5.388460122E-03
 9.966526413E-04 -1.527474970E-01 1.199019030E-01 -1.145133972E-01 -5.388415884E-03
 1.052367035E-03 -1.527477950E-01 1.199024022E-01 -1.145138964E-01 -5.388486199E-03
 1.111189951E-03 -1.527478993E-01 1.199031025E-01 -1.145145968E-01 -5.388457794E-03
 1.173294033E-03 -1.527480036E-01 1.199038029E-01 -1.145152971E-01 -5.388425197E-03
 1.238862053E-03 -1.527483016E-01 1.199046969E-01 -1.145161018E-01 -5.388500169E-03
 1.308085979E-03 -1.527487040E-01 1.199057028E-01 -1.145171002E-01 -5.388583057E-03
 1.381170005E-03 -1.527487040E-01 1.199067980E-01 -1.145180985E-01 -5.388622172E-03
 1.458329032E-03 -1.527488977E-01 1.199079975E-01 -1.145192981E-01 -5.388618913E-03
 1.539789024E-03 -1.527494043E-01 1.199093014E-01 -1.145204976E-01 -5.388660822E-03
 1.625788980E-03 -1.527498066E-01 1.199107990E-01 -1.145218983E-01 -5.388741847E-03
 1.716581988E-03 -1.527500004E-01 1.199124008E-01 -1.145235002E-01 -5.388798192E-03
 1.812431961E-03 -1.527502984E-01 1.199140027E-01 -1.145251021E-01 -5.388880149E-03
 1.913622022E-03 -1.527508944E-01 1.199159026E-01 -1.145268008E-01 -5.389005877E-03
 2.020447049E-03 -1.527512968E-01 1.199181005E-01 -1.145289019E-01 -5.389089230E-03
 2.133219037E-03 -1.527518034E-01 1.199202016E-01 -1.145308986E-01 -5.389223807E-03
 2.252269071E-03 -1.527522951E-01 1.199224964E-01 -1.145329997E-01 -5.389316007E-03
 2.377944998E-03 -1.527528018E-01 1.199249029E-01 -1.145353988E-01 -5.389372818E-03
 2.510613063E-03 -1.527533978E-01 1.199275032E-01 -1.145379990E-01 -5.389408208E-03
 2.650659066E-03 -1.527540982E-01 1.199302003E-01 -1.145407036E-01 -5.389458034E-03
 2.798493020E-03 -1.527547985E-01 1.199332029E-01 -1.145434976E-01 -5.389628932E-03
 2.954545897E-03 -1.527554989E-01 1.199363992E-01 -1.145465970E-01 -5.389710888E-03
 3.119270084E-03 -1.527561992E-01 1.199396998E-01 -1.145496964E-01 -5.389837082E-03
 3.293144982E-03 -1.527570933E-01 1.199430972E-01 -1.145531014E-01 -5.389979109E-03
 3.476674901E-03 -1.527578980E-01 1.199468970E-01 -1.145567000E-01 -5.390116945E-03
 3.670393024E-03 -1.527588069E-01 1.199508011E-01 -1.145604998E-01 -5.390204955E-03
 3.874860005E-03 -1.527599990E-01 1.199548990E-01 -1.145645007E-01 -5.390333012E-03
 4.090669099E-03 -1.527609974E-01 1.199593991E-01 -1.145687029E-01 -5.390584935E-03
 4.318440799E-03 -1.527619064E-01 1.199641973E-01 -1.145732999E-01 -5.390833132E-03
 4.558836110E-03 -1.527630985E-01 1.199693009E-01 -1.145782024E-01 -5.390986800E-03
 4.812544212E-03 -1.527643949E-01 1.199745014E-01 -1.145832017E-01 -5.391182844E-03
 5.080298055E-03 -1.527656019E-01 1.199797988E-01 -1.145884022E-01 -5.391343962E-03
 5.362865049E-03 -1.527670026E-01 1.199856028E-01 -1.145941019E-01 -5.391463172E-03
 5.661056843E-03 -1.527684927E-01 1.199918017E-01 -1.145998985E-01 -5.391797051E-03
 5.975726992E-03 -1.527699977E-01 1.199982986E-01 -1.146060973E-01 -5.392084830E-03
 6.307772826E-03 -1.527715027E-01 1.200051010E-01 -1.146128029E-01 -5.392238963E-03
 6.658143830E-03 -1.527730972E-01 1.200122982E-01 -1.146197021E-01 -5.392462946E-03
 7.027836051E-03 -1.527750045E-01 1.200198010E-01 -1.146268994E-01 -5.392769817E-03
 7.417900022E-03 -1.527768970E-01 1.200276017E-01 -1.146344990E-01 -5.393044092E-03
 7.829438895E-03 -1.527788937E-01 1.200359985E-01 -1.146425009E-01 -5.393365864E-03
 8.263616823E-03 -1.527812034E-01 1.200447008E-01 -1.146510020E-01 -5.393624771E-03
 8.721658029E-03 -1.527834982E-01 1.200537980E-01 -1.146598011E-01 -5.393914878E-03
 9.204849601E-03 -1.527857035E-01 1.200634018E-01 -1.146690026E-01 -5.394334905E-03
 9.714545682E-03 -1.527882963E-01 1.200734973E-01 -1.146787032E-01 -5.394728854E-03
 1.025217026E-02 -1.527909040E-01 1.200840995E-01 -1.146889031E-01 -5.395094864E-03
 1.081921998E-02 -1.527937055E-01 1.200950965E-01 -1.146996021E-01 -5.395403132E-03
 1.141726971E-02 -1.527965963E-01 1.201066971E-01 -1.147107035E-01 -5.395866930E-03
 1.204796974E-02 -1.527996957E-01 1.201189011E-01 -1.147224009E-01 -5.396370776E-03
 1.271305978E-02 -1.528027952E-01 1.201315969E-01 -1.147347018E-01 -5.396822933E-03
 1.341436990E-02 -1.528059989E-01 1.201450974E-01 -1.147475988E-01 -5.397336092E-03
 1.415379997E-02 -1.528096944E-01 1.201589033E-01 -1.147610992E-01 -5.397771951E-03
 1.493337005E-02 -1.528135985E-01 1.201734990E-01 -1.147750989E-01 -5.398233887E-03
 1.575520076E-02 -1.528175026E-01 1.201886982E-01 -1.147897989E-01 -5.398802925E-03
 1.662147976E-02 -1.528217047E-01 1.202047020E-01 -1.148051992E-01 -5.399378948E-03
 1.753455028E-02 -1.528261006E-01 1.202213019E-01 -1.148212031E-01 -5.399999209E-03
 1.849683002E-02 -1.528307945E-01 1.202386022E-01 -1.148378998E-01 -5.400621798E-03
 1.951085962E-02 -1.528355926E-01 1.202566028E-01 -1.148552001E-01 -5.401260220E-03
 2.057931945E-02 -1.528405994E-01 1.202754006E-01 -1.148734018E-01 -5.401916802E-03
 2.170499042E-02 -1.528456956E-01 1.202948987E-01 -1.148921996E-01 -5.402620882E-03
 2.289078943E-02 -1.528514028E-01 1.203152016E-01 -1.149116978E-01 -5.403358955E-03
 2.413978055E-02 -1.528573930E-01 1.203363016E-01 -1.149320975E-01 -5.404092837E-03
 2.545513026E-02 -1.528635025E-01 1.203583032E-01 -1.149533987E-01 -5.404847208E-03
 2.684018947E-02 -1.528698951E-01 1.203811988E-01 -1.149756014E-01 -5.405581091E-03
 2.829840966E-02 -1.528767049E-01 1.204048023E-01 -1.149981990E-01 -5.406448152E-03
 2.983343042E-02 -1.528836936E-01 1.204290986E-01 -1.150216982E-01 -5.407333840E-03
 3.144901991E-02 -1.528910995E-01 1.204544008E-01 -1.150460988E-01 -5.408199038E-03
 3.314910084E-02 -1.528986990E-01 1.204805970E-01 -1.150712967E-01 -5.409163889E-03
 3.493776917E-02 -1.529067010E-01 1.205075011E-01 -1.150972992E-01 -5.410076119E-03
 3.681927919E-02 -1.529150009E-01 1.205352992E-01 -1.151240990E-01 -5.411087070E-03
 3.879803047E-02 -1.529237032E-01 1.205639988E-01 -1.151517034E-01 -5.412165076E-03
 4.087862000E-02 -1.529328972E-01 1.205933020E-01 -1.151800975E-01 -5.413089879E-03
 4.306577146E-02 -1.529424042E-01 1.206234992E-01 -1.152092963E-01 -5.414181855E-03
 4.536440969E-02 -1.529522985E-01 1.206545010E-01 -1.152390018E-01 -5.415370222E-03
 4.777960852E-02 -1.529621929E-01 1.206860021E-01 -1.152694002E-01 -5.416499916E-03
 5.031660944E-02 -1.529726982E-01 1.207183003E-01 -1.153004989E-01 -5.417745095E-03
 5.298082903E-02 -1.529837996E-01 1.207512021E-01 -1.153320000E-01 -5.419082940E-03
 5.577782914E-02 -1.529950947E-01 1.207846031E-01 -1.153640971E-01 -5.420386791E-03
 5.871333182E-02 -1.530067027E-01 1.208183989E-01 -1.153964996E-01 -5.421760958E-03
 6.179321185E-02 -1.530185938E-01 1.208525971E-01 -1.154292002E-01 -5.423292052E-03
 6.502348185E-02 -1.530310065E-01 1.208871007E-01 -1.154621989E-01 -5.424798001E-03
 6.841030717E-02 -1.530435979E-01 1.209217012E-01 -1.154951975E-01 -5.426398944E-03
 7.195995748E-02 -1.530565023E-01 1.209561974E-01 -1.155280992E-01 -5.428005010E-03
 7.567883283E-02 -1.530696005E-01 1.209904999E-01 -1.155605987E-01 -5.429817829E-03
 7.957340032E-02 -1.530828029E-01 1.210246012E-01 -1.155923977E-01 -5.432116799E-03
 8.365026116E-02 -1.530963033E-01 1.210578978E-01 -1.156234965E-01 -5.434245802E-03
 8.791604638E-02 -1.531095952E-01 1.210903004E-01 -1.156537011E-01 -5.436515901E-03
 9.237741679E-02 -1.531229019E-01 1.211216971E-01 -1.156824008E-01 -5.439265165E-03
 9.704112262E-02 -1.531361938E-01 1.211517975E-01 -1.157092974E-01 -5.442332011E-03
 1.019138023E-01 -1.531490982E-01 1.211801022E-01 -1.157341003E-01 -5.445823073E-03
 1.070021987E-01 -1.531614959E-01 1.212062985E-01 -1.157563031E-01 -5.449886899E-03
 1.123128012E-01 -1.531732976E-01 1.212299988E-01 -1.157753021E-01 -5.454569124E-03
 1.178523004E-01 -1.531839967E-01 1.212508008E-01 -1.157905012E-01 -5.460200831E-03
 1.236269027E-01 -1.531933993E-01 1.212683022E-01 -1.158012971E-01 -5.466827191E-03
 1.296429038E-01 -1.532011032E-01 1.212818027E-01 -1.158071011E-01 -5.474586971E-03
 1.359062046E-01 -1.532067955E-01 1.212908998E-01 -1.158068031E-01 -5.483982153E-03
 1.424226016E-01 -1.532094032E-01 1.212946996E-01 -1.157990992E-01 -5.495413207E-03
 1.491973996E-01 -1.532083005E-01 1.212927029E-01 -1.157831028E-01 -5.509436131E-03
 1.562359035E-01 -1.532029063E-01 1.212844998E-01 -1.157575995E-01 -5.526808091E-03
 1.635425985E-01 -1.531915963E-01 1.212692037E-01 -1.157210991E-01 -5.548073910E-03
 1.711215973E-01 -1.531729996E-01 1.212467030E-01 -1.156719998E-01 -5.574583076E-03
 1.789768040E-01 -1.531455070E-01 1.212159991E-01 -1.156084985E-01 -5.607410800E-03
 1.871110946E-01 -1.531067044E-01 1.211766973E-01 -1.155283004E-01 -5.648294929E-03
 1.955271065E-01 -1.530535072E-01 1.211287007E-01 -1.154291034E-01 -5.699506961E-03
 2.042264938E-01 -1.529826969E-01 1.210723966E-01 -1.153085008E-01 -5.763796158E-03
 2.132104039E-01 -1.528899074E-01 1.210084036E-01 -1.151632965E-01 -5.844991188E-03
 2.224790007E-01 -1.527695060E-01 1.209380999E-01 -1.149906963E-01 -5.947319791E-03
 2.320317030E-01 -1.526141018E-01 1.208641008E-01 -1.147871986E-01 -6.076787133E-03
 2.418669015E-01 -1.524149030E-01 1.207901016E-01 -1.145486012E-01 -6.241342984E-03
 2.519823015E-01 -1.521608979E-01 1.207223013E-01 -1.142712012E-01 -6.451014895E-03
 2.623743117E-01 -1.518380046E-01 1.206706017E-01 -1.139511019E-01 -6.719416939E-03
 2.730385065E-01 -1.514268070E-01 1.206478998E-01 -1.135841012E-01 -7.063757163E-03
 2.839691937E-01 -1.508993953E-01 1.206689999E-01 -1.131630987E-01 -7.505837828E-03
 2.951597869E-01 -1.501968056E-01 1.207318977E-01 -1.126635969E-01 -8.068252355E-03
 3.066025972E-01 -1.492082030E-01 1.207896024E-01 -1.120318994E-01 -8.757567964E-03
 3.182887137E-01 -1.477804929E-01 1.207417995E-01 -1.111928970E-01 -9.548813105E-03
 3.302080929E-01 -1.457494050E-01 1.204593033E-01 -1.100744009E-01 -1.038481016E-02
 3.423497081E-01 -1.429494023E-01 1.198071986E-01 -1.086195037E-01 -1.118765958E-02
 3.547013104E-01 -1.392236054E-01 1.186719015E-01 -1.067946032E-01 -1.187720988E-02
 3.672496974E-01 -1.344143003E-01 1.169722006E-01 -1.045871004E-01 -1.238500979E-02
 3.799807131E-01 -1.283781976E-01 1.146833971E-01 -1.020127013E-01 -1.267062034E-02
 3.928788900E-01 -1.209649965E-01 1.118315011E-01 -9.910921752E-02 -1.272222959E-02
 4.059283137E-01 -1.120513976E-01 1.085164994E-01 -9.595075250E-02 -1.256566960E-02
 4.191119075E-01 -1.015051976E-01 1.049005017E-01 -9.264258295E-02 -1.225777995E-02
 4.324119985E-01 -8.927410841E-02 1.012590975E-01 -8.937252313E-02 -1.188642997E-02
 4.458102882E-01 -7.525721937E-02 9.793900698E-02 -8.641737700E-02 -1.152153034E-02
 4.592877924E-01 -5.911445990E-02 9.514065087E-02 -8.392342925E-02 -1.121713035E-02
 4.728251100E-01 -4.080304876E-02 9.302175790E-02 -8.199337125E-02 -1.102828979E-02
 4.864025116E-01 -2.084713988E-02 9.174822271E-02 -8.078733087E-02 -1.096078008E-02
 5.000000000E-01 -2.808015051E-05 9.145095199E-02 -8.043424785E-02 -1.101659983E-02
 5.135974884E-01 2.078518085E-02 9.217087924E-02 -8.097361773E-02 -1.119716000E-02
 5.271748900E-01 4.067555815E-02 9.387215972E-02 -8.237074316E-02 -1.150131971E-02
 5.407121778E-01 5.890126899E-02 9.642191231E-02 -8.450025320E-02 -1.192156971E-02
 5.541896820E-01 7.507549971E-02 9.959866852E-02 -8.720596135E-02 -1.239261031E-02
 5.675879717E-01 8.930127323E-02 1.031552032E-01 -9.031023085E-02 -1.284492016E-02
 5.808880925E-01 1.017109975E-01 1.068551019E-01 -9.359335154E-02 -1.326168980E-02
 5.940716863E-01 1.123668998E-01 1.104412004E-01 -9.684836119E-02 -1.359277032E-02
 6.071211100E-01 1.213477999E-01 1.136815995E-01 -9.992527962E-02 -1.375625003E-02
 6.200193167E-01 1.287735999E-01 1.164114028E-01 -1.027242988E-01 -1.368702017E-02
 6.327502728E-01 1.347787976E-01 1.185311005E-01 -1.051777974E-01 -1.335320994E-02
 6.452987194E-01 1.395142972E-01 1.200108975E-01 -1.072487980E-01 -1.276205014E-02
 6.576502919E-01 1.431377977E-01 1.208866015E-01 -1.089287996E-01 -1.195770036E-02
 6.697918773E-01 1.458171010E-01 1.212548986E-01 -1.102378964E-01 -1.101690996E-02
 6.817113161E-01 1.477279067E-01 1.212581024E-01 -1.112219021E-01 -1.003616024E-02
 6.933972836E-01 1.490610987E-01 1.210734025E-01 -1.119574010E-01 -9.115860797E-03
 7.048401833E-01 1.500135064E-01 1.208719015E-01 -1.125388965E-01 -8.332850412E-03
 7.160307765E-01 1.507332027E-01 1.207446977E-01 -1.130352020E-01 -7.709397934E-03
 7.269616127E-01 1.512947977E-01 1.206960976E-01 -1.134719029E-01 -7.224088069E-03
 7.376257181E-01 1.517359018E-01 1.207024977E-01 -1.138556004E-01 -6.846818142E-03
 7.480177283E-01 1.520829052E-01 1.207429990E-01 -1.141901985E-01 -6.552678999E-03
 7.581331134E-01 1.523551047E-01 1.208027005E-01 -1.144800037E-01 -6.322562229E-03
 7.679682970E-01 1.525682956E-01 1.208710968E-01 -1.147292033E-01 -6.141838152E-03
 7.775210142E-01 1.527343988E-01 1.209411994E-01 -1.149417013E-01 -5.999445915E-03
 7.867895961E-01 1.528632939E-01 1.210089996E-01 -1.151219979E-01 -5.886922125E-03
 7.957735062E-01 1.529625952E-01 1.210716963E-01 -1.152736992E-01 -5.797911901E-03
 8.044729233E-01 1.530380994E-01 1.211270988E-01 -1.153998971E-01 -5.727144890E-03
 8.128889203E-01 1.530947983E-01 1.211742982E-01 -1.155036986E-01 -5.670464132E-03
 8.210232258E-01 1.531367004E-01 1.212131009E-01 -1.155878007E-01 -5.625175778E-03
 8.288784027E-01 1.531666070E-01 1.212439016E-01 -1.156546995E-01 -5.589140113E-03
 8.364573717E-01 1.531867981E-01 1.212667972E-01 -1.157063991E-01 -5.560324993E-03
 8.437641263E-01 1.531991065E-01 1.212821007E-01 -1.157452017E-01 -5.536780227E-03
 8.508024812E-01 1.532054991E-01 1.212904006E-01 -1.157727987E-01 -5.517545156E-03
 8.575773835E-01 1.532073021E-01 1.212925985E-01 -1.157905012E-01 -5.502026994E-03
 8.640937805E-01 1.532053947E-01 1.212889031E-01 -1.157993972E-01 -5.489355884E-03
 8.703572154E-01 1.532005072E-01 1.212799996E-01 -1.158009991E-01 -5.478920881E-03
 8.763731122E-01 1.531931013E-01 1.212669015E-01 -1.157964990E-01 -5.470282864E-03
 8.821477294E-01 1.531838030E-01 1.212496012E-01 -1.157865003E-01 -5.462991074E-03
 8.876870871E-01 1.531731039E-01 1.212289035E-01 -1.157718003E-01 -5.456998944E-03
 8.929978013E-01 1.531614065E-01 1.212053970E-01 -1.157533973E-01 -5.451860838E-03
 8.980861902E-01 1.531490982E-01 1.211792976E-01 -1.157317013E-01 -5.447491072E-03
 9.029589295E-01 1.531362981E-01 1.211510971E-01 -1.157071963E-01 -5.443814211E-03
 9.076225758E-01 1.531233042E-01 1.211211011E-01 -1.156805977E-01 -5.440433044E-03
 9.120839834E-01 1.531098038E-01 1.210898012E-01 -1.156522036E-01 -5.437492859E-03
 9.163497090E-01 1.530963033E-01 1.210573018E-01 -1.156224981E-01 -5.434785970E-03
 9.204266071E-01 1.530828029E-01 1.210239977E-01 -1.155915037E-01 -5.432416219E-03
 9.243211746E-01 1.530694962E-01 1.209902018E-01 -1.155596972E-01 -5.430466961E-03
 9.280400276E-01 1.530565023E-01 1.209561005E-01 -1.155273989E-01 -5.428581033E-03
 9.315897226E-01 1.530437022E-01 1.209215000E-01 -1.154946014E-01 -5.426771007E-03
 9.349765182E-01 1.530310065E-01 1.208869964E-01 -1.154617965E-01 -5.425121170E-03
 9.382067919E-01 1.530186981E-01 1.208527014E-01 -1.154289991E-01 -5.423541181E-03
 9.412866831E-01 1.530068070E-01 1.208183020E-01 -1.153962016E-01 -5.421972834E-03
 9.442222118E-01 1.529951990E-01 1.207844019E-01 -1.153637990E-01 -5.420546979E-03
 9.470192194E-01 1.529839933E-01 1.207512021E-01 -1.153317988E-01 -5.419237074E-03
 9.496834278E-01 1.529729962E-01 1.207183972E-01 -1.153002977E-01 -5.417938810E-03
 9.522203803E-01 1.529622972E-01 1.206862032E-01 -1.152694002E-01 -5.416643806E-03
 9.546356201E-01 1.529521942E-01 1.206543967E-01 -1.152390018E-01 -5.415366963E-03
 9.569342136E-01 1.529424042E-01 1.206234992E-01 -1.152091026E-01 -5.414285231E-03
 9.591214061E-01 1.529327929E-01 1.205935031E-01 -1.151800975E-01 -5.413294770E-03
 9.612020254E-01 1.529237032E-01 1.205639988E-01 -1.151518002E-01 -5.412166938E-03
 9.631807208E-01 1.529150009E-01 1.205354035E-01 -1.151242033E-01 -5.411074962E-03
 9.650622010E-01 1.529065967E-01 1.205075979E-01 -1.150972992E-01 -5.410163198E-03
 9.668508768E-01 1.528988034E-01 1.204807013E-01 -1.150712967E-01 -5.409269128E-03
 9.685509801E-01 1.528912038E-01 1.204544976E-01 -1.150460988E-01 -5.408326164E-03
 9.701666236E-01 1.528836936E-01 1.204290986E-01 -1.150216982E-01 -5.407377146E-03
 9.717016220E-01 1.528766006E-01 1.204046011E-01 -1.149981022E-01 -5.406420212E-03
 9.731597900E-01 1.528698057E-01 1.203811020E-01 -1.149754971E-01 -5.405574106E-03
 9.745448828E-01 1.528633982E-01 1.203584000E-01 -1.149535030E-01 -5.404775962E-03
 9.758601785E-01 1.528573036E-01 1.203365028E-01 -1.149322987E-01 -5.404072814E-03
 9.771091938E-01 1.528514028E-01 1.203154027E-01 -1.149118990E-01 -5.403380841E-03
 9.782950282E-01 1.528459042E-01 1.202950031E-01 -1.148921996E-01 -5.402707960E-03
 9.794207215E-01 1.528404951E-01 1.202754974E-01 -1.148732975E-01 -5.402007140E-03
 9.804890752E-01 1.528355032E-01 1.202566996E-01 -1.148552001E-01 -5.401348229E-03
 9.815031886E-01 1.528307050E-01 1.202386022E-01 -1.148378029E-01 -5.400693975E-03
 9.824653864E-01 1.528259963E-01 1.202211976E-01 -1.148210987E-01 -5.399921909E-03
 9.833785295E-01 1.528217047E-01 1.202045977E-01 -1.148051023E-01 -5.399385933E-03
 9.842448235E-01 1.528175026E-01 1.201888025E-01 -1.147897989E-01 -5.398876965E-03
 9.850667119E-01 1.528134048E-01 1.201736033E-01 -1.147750989E-01 -5.398413166E-03
 9.858462214E-01 1.528097987E-01 1.201590002E-01 -1.147610992E-01 -5.397832952E-03
 9.865856171E-01 1.528061926E-01 1.201449037E-01 -1.147475988E-01 -5.397179164E-03
 9.872869253E-01 1.528027952E-01 1.201315001E-01 -1.147347987E-01 -5.396671128E-03
 9.879521132E-01 1.527996063E-01 1.201187968E-01 -1.147224978E-01 -5.396252032E-03
 9.885826707E-01 1.527967006E-01 1.201068014E-01 -1.147107035E-01 -5.395946093E-03
 9.891808033E-01 1.527937055E-01 1.200952977E-01 -1.146996021E-01 -5.395574961E-03
 9.897478223E-01 1.527907997E-01 1.200841963E-01 -1.146889031E-01 -5.395139102E-03
 9.902855158E-01 1.527882069E-01 1.200734973E-01 -1.146787032E-01 -5.394744221E-03
 9.907950759E-01 1.527857035E-01 1.200632975E-01 -1.146688983E-01 -5.394322798E-03
 9.912784100E-01 1.527833939E-01 1.200537011E-01 -1.146596968E-01 -5.393902771E-03
 9.917364120E-01 1.527810991E-01 1.200445965E-01 -1.146508977E-01 -5.393669941E-03
 9.921705723E-01 1.527791023E-01 1.200357974E-01 -1.146425009E-01 -5.393237807E-03
 9.925820827E-01 1.527768970E-01 1.200274974E-01 -1.146344021E-01 -5.392927211E-03
 9.929720759E-01 1.527750939E-01 1.200195998E-01 -1.146268025E-01 -5.392698105E-03
 9.933419228E-01 1.527733058E-01 1.200122014E-01 -1.146197021E-01 -5.392414983E-03
 9.936922193E-01 1.527716070E-01 1.200051010E-01 -1.146126986E-01 -5.392204970E-03
 9.940242767E-01 1.527701020E-01 1.199982017E-01 -1.146062016E-01 -5.391969811E-03
 9.943389297E-01 1.527684927E-01 1.199918017E-01 -1.146000028E-01 -5.391690880E-03
 9.946370721E-01 1.527668983E-01 1.199857965E-01 -1.145941019E-01 -5.391602870E-03
 9.949197173E-01 1.527654976E-01 1.199800000E-01 -1.145884991E-01 -5.391400773E-03
 9.951875210E-01 1.527643055E-01 1.199743971E-01 -1.145832017E-01 -5.391094834E-03
 9.954410791E-01 1.527630985E-01 1.199690998E-01 -1.145780012E-01 -5.390928127E-03
 9.956815839E-01 1.527618021E-01 1.199641004E-01 -1.145732999E-01 -5.390761886E-03
 9.959092736E-01 1.527606994E-01 1.199595034E-01 -1.145688966E-01 -5.390482023E-03