VARIABLES = "x","utau"
ZONE T="CFL3D high Re channel, SST"
 0.000000000E+00 3.435482979E-01
 3.906250000E+00 2.510181628E-02
 7.812500000E+00 2.474755235E-02
 1.171875000E+01 2.478167228E-02
 1.562500000E+01 2.480712906E-02
 1.953125000E+01 2.481202595E-02
 2.343750000E+01 2.480510250E-02
 2.734375000E+01 2.479801700E-02
 3.125000000E+01 2.479699440E-02
 3.515625000E+01 2.480383217E-02
 3.906250000E+01 2.481859364E-02
 4.296875000E+01 2.484063618E-02
 4.687500000E+01 2.486911044E-02
 5.078125000E+01 2.490315214E-02
 5.468750000E+01 2.494199388E-02
 5.859375000E+01 2.498495951E-02
 6.250000000E+01 2.503149025E-02
 6.640625000E+01 2.508119494E-02
 7.031250000E+01 2.513383515E-02
 7.421875000E+01 2.518925443E-02
 7.812500000E+01 2.524726279E-02
 8.203125000E+01 2.530751936E-02
 8.593750000E+01 2.536935546E-02
 8.984375000E+01 2.543156594E-02
 9.375000000E+01 2.549221739E-02
 9.765625000E+01 2.554884925E-02
 1.015625000E+02 2.559917793E-02
 1.054687500E+02 2.564196661E-02
 1.093750000E+02 2.567718551E-02
 1.132812500E+02 2.570568025E-02
 1.171875000E+02 2.572865412E-02
 1.210937500E+02 2.574732155E-02
 1.250000000E+02 2.576273680E-02
 1.289062500E+02 2.577575669E-02
 1.328125000E+02 2.578705363E-02
 1.367187500E+02 2.579711750E-02
 1.406250000E+02 2.580634877E-02
 1.445312500E+02 2.581500262E-02
 1.484375000E+02 2.582329139E-02
 1.523437500E+02 2.583134174E-02
 1.562500000E+02 2.583925799E-02
 1.601562500E+02 2.584709786E-02
 1.640625000E+02 2.585490048E-02
 1.679687500E+02 2.586269565E-02
 1.718750000E+02 2.587049454E-02
 1.757812500E+02 2.587829903E-02
 1.796875000E+02 2.588611282E-02
 1.835937500E+02 2.589393407E-02
 1.875000000E+02 2.590177208E-02
 1.914062500E+02 2.590961382E-02
 1.953125000E+02 2.591745555E-02
 1.992187500E+02 2.592530288E-02
 2.031250000E+02 2.593315020E-02
 2.070312500E+02 2.594100125E-02
 2.109375000E+02 2.594884485E-02
 2.148437500E+02 2.595668845E-02
 2.187500000E+02 2.596453950E-02
 2.226562500E+02 2.597238682E-02
 2.265625000E+02 2.598023042E-02
 2.304687500E+02 2.598807588E-02
 2.343750000E+02 2.599593252E-02
 2.382812500E+02 2.600378171E-02
 2.421875000E+02 2.601163834E-02
 2.460937500E+02 2.601949871E-02
 2.500000000E+02 2.602736466E-02
 2.539062500E+02 2.603523433E-02
 2.578125000E+02 2.604310587E-02
 2.617187500E+02 2.605098858E-02
 2.656250000E+02 2.605887130E-02
 2.695312500E+02 2.606676519E-02
 2.734375000E+02 2.607466280E-02
 2.773437500E+02 2.608256787E-02
 2.812500000E+02 2.609048039E-02
 2.851562500E+02 2.609839849E-02
 2.890625000E+02 2.610632777E-02
 2.929687500E+02 2.611425892E-02
 2.968750000E+02 2.612219937E-02
 3.007812500E+02 2.613014728E-02
 3.046875000E+02 2.613810636E-02
 3.085937500E+02 2.614606358E-02
 3.125000000E+02 2.615403384E-02
 3.164062500E+02 2.616201527E-02
 3.203125000E+02 2.617000416E-02
 3.242187500E+02 2.617799118E-02
 3.281250000E+02 2.618599311E-02
 3.320312500E+02 2.619399875E-02
 3.359375000E+02 2.620201372E-02
 3.398437500E+02 2.621003985E-02
 3.437500000E+02 2.621806785E-02
 3.476562500E+02 2.622610331E-02
 3.515625000E+02 2.623414993E-02
 3.554687500E+02 2.624220401E-02
 3.593750000E+02 2.625026554E-02
 3.632812500E+02 2.625833265E-02
 3.671875000E+02 2.626640722E-02
 3.710937500E+02 2.627449296E-02
 3.750000000E+02 2.628258429E-02
 3.789062500E+02 2.629068121E-02
 3.828125000E+02 2.629878744E-02
 3.867187500E+02 2.630690299E-02
 3.906250000E+02 2.631502412E-02
 3.945312500E+02 2.632315457E-02
 3.984375000E+02 2.633129060E-02
 4.023437500E+02 2.633943409E-02
 4.062500000E+02 2.634759061E-02
 4.101562500E+02 2.635575086E-02
 4.140625000E+02 2.636391670E-02
 4.179687500E+02 2.637209184E-02
 4.218750000E+02 2.638027817E-02
 4.257812500E+02 2.638847008E-02
 4.296875000E+02 2.639666572E-02
 4.335937500E+02 2.640487999E-02
 4.375000000E+02 2.641309239E-02
 4.414062500E+02 2.642131969E-02
 4.453125000E+02 2.642954886E-02
 4.492187500E+02 2.643778920E-02
 4.531250000E+02 2.644603699E-02
 4.570312500E+02 2.645429038E-02
 4.609375000E+02 2.646255493E-02
 4.648437500E+02 2.647082508E-02
 4.687500000E+02 2.647910453E-02
 4.726562500E+02 2.648739144E-02
 4.765625000E+02 2.649568766E-02
 4.804687500E+02 2.650398947E-02
 4.843750000E+02 2.651229873E-02
 4.882812500E+02 2.652061917E-02
 4.921875000E+02 2.652894892E-02
 4.960937500E+02 2.653728239E-02
 5.000000000E+02 2.654563263E-02
 5.039062500E+02 2.655399591E-02
 5.078306274E+02 2.656240016E-02
 5.117912903E+02 2.657089382E-02
 5.158066406E+02 2.657951415E-02
 5.198953247E+02 2.658829466E-02
 5.240762329E+02 2.659729123E-02
 5.283687744E+02 2.660653554E-02
 5.327928467E+02 2.661607042E-02
 5.373690796E+02 2.662594616E-02
 5.421185303E+02 2.663620934E-02
 5.470632935E+02 2.664690837E-02
 5.522263184E+02 2.665809356E-02
 5.576315308E+02 2.666981518E-02
 5.633039551E+02 2.668213286E-02
 5.692699585E+02 2.669510618E-02
 5.755571899E+02 2.670880780E-02
 5.821947632E+02 2.672328614E-02
 5.892135010E+02 2.673862502E-02
 5.966459961E+02 2.675489709E-02
 6.045266113E+02 2.677218616E-02
 6.128919067E+02 2.679057606E-02
 6.217807007E+02 2.681015432E-02
 6.312342529E+02 2.683103085E-02
 6.412963867E+02 2.685330994E-02
 6.520137329E+02 2.687709779E-02
 6.634359741E+02 2.690251917E-02
 6.756160889E+02 2.692974918E-02
 6.886105957E+02 2.695865557E-02
 7.024796753E+02 2.699016035E-02
 7.172877197E+02 2.702262253E-02
 7.331033936E+02 2.705905959E-02
 7.500000000E+02 1.927980967E-02
