# Theoretical flat plate Cf as fn of Re-theta based on incompressible Karman-Schoenherr relation,
# then modified for 4 different freestream M and constant wall temperatures (Tw) using Van Driest II correlation.
# Tini is freestream T
# Taw is adiabatic wall temperature from: Taw=Tini*(1+0.89(gamma-1)/2*M**2)
VARIABLES = "retheta","cf"
ZONE T="M=2.0, Tw/Tini=1.712, Tw/Taw=1.0"
 2.000000000E+02 5.026679952E-03
 2.100000000E+02 4.951518960E-03
 2.200000000E+02 4.881424829E-03
 2.300000000E+02 4.815838300E-03
 2.400000000E+02 4.754283931E-03
 2.500000000E+02 4.696351942E-03
 2.600000000E+02 4.641692154E-03
 2.700000000E+02 4.589996766E-03
 2.800000000E+02 4.541000351E-03
 2.900000000E+02 4.494468216E-03
 3.000000000E+02 4.450194538E-03
 3.100000000E+02 4.407995846E-03
 3.200000000E+02 4.367710557E-03
 3.300000000E+02 4.329192452E-03
 3.400000000E+02 4.292313475E-03
 3.500000000E+02 4.256955348E-03
 3.600000000E+02 4.223012831E-03
 3.700000000E+02 4.190390464E-03
 3.800000000E+02 4.159002565E-03
 3.900000000E+02 4.128769506E-03
 4.000000000E+02 4.099620506E-03
 4.100000000E+02 4.071488976E-03
 4.200000000E+02 4.044314846E-03
 4.300000000E+02 4.018044099E-03
 4.400000000E+02 3.992625512E-03
 4.500000000E+02 3.968012519E-03
 4.600000000E+02 3.944160417E-03
 4.700000000E+02 3.921030089E-03
 4.800000000E+02 3.898584284E-03
 4.900000000E+02 3.876789706E-03
 5.000000000E+02 3.855612827E-03
 5.100000000E+02 3.835023381E-03
 5.200000000E+02 3.814995755E-03
 5.300000000E+02 3.795501310E-03
 5.400000000E+02 3.776517697E-03
 5.500000000E+02 3.758021630E-03
 5.600000000E+02 3.739990992E-03
 5.700000000E+02 3.722406691E-03
 5.800000000E+02 3.705248935E-03
 5.900000000E+02 3.688501194E-03
 6.000000000E+02 3.672145074E-03
 6.100000000E+02 3.656166140E-03
 6.200000000E+02 3.640549723E-03
 6.300000000E+02 3.625279991E-03
 6.400000000E+02 3.610346001E-03
 6.500000000E+02 3.595734015E-03
 6.600000000E+02 3.581431461E-03
 6.700000000E+02 3.567428328E-03
 6.800000000E+02 3.553712508E-03
 6.900000000E+02 3.540274687E-03
 7.000000000E+02 3.527105786E-03
 7.100000000E+02 3.514194861E-03
 7.200000000E+02 3.501534928E-03
 7.300000000E+02 3.489116905E-03
 7.400000000E+02 3.476931946E-03
 7.500000000E+02 3.464973997E-03
 7.600000000E+02 3.453234676E-03
 7.700000000E+02 3.441708861E-03
 7.800000000E+02 3.430387005E-03
 7.900000000E+02 3.419265151E-03
 8.000000000E+02 3.408335848E-03
 8.100000000E+02 3.397594672E-03
 8.200000000E+02 3.387034405E-03
 8.300000000E+02 3.376651788E-03
 8.400000000E+02 3.366440069E-03
 8.500000000E+02 3.356395056E-03
 8.600000000E+02 3.346511628E-03
 8.700000000E+02 3.336785361E-03
 8.800000000E+02 3.327212064E-03
 8.900000000E+02 3.317788010E-03
 9.000000000E+02 3.308508079E-03
 9.100000000E+02 3.299369942E-03
 9.200000000E+02 3.290368943E-03
 9.300000000E+02 3.281501355E-03
 9.400000000E+02 3.272763919E-03
 9.500000000E+02 3.264153143E-03
 9.600000000E+02 3.255666699E-03
 9.700000000E+02 3.247301094E-03
 9.800000000E+02 3.239053069E-03
 9.900000000E+02 3.230918897E-03
 1.000000000E+03 3.222897416E-03
 1.010000000E+03 3.214984899E-03
 1.020000000E+03 3.207180183E-03
 1.030000000E+03 3.199479077E-03
 1.040000000E+03 3.191879485E-03
 1.050000000E+03 3.184380010E-03
 1.060000000E+03 3.176977392E-03
 1.070000000E+03 3.169670235E-03
 1.080000000E+03 3.162455512E-03
 1.090000000E+03 3.155331826E-03
 1.100000000E+03 3.148297081E-03
 1.110000000E+03 3.141349414E-03
 1.120000000E+03 3.134486498E-03
 1.130000000E+03 3.127706936E-03
 1.140000000E+03 3.121009097E-03
 1.150000000E+03 3.114390885E-03
 1.160000000E+03 3.107850906E-03
 1.170000000E+03 3.101387294E-03
 1.180000000E+03 3.094999120E-03
 1.190000000E+03 3.088684054E-03
 1.200000000E+03 3.082441166E-03
 1.210000000E+03 3.076268826E-03
 1.220000000E+03 3.070165869E-03
 1.230000000E+03 3.064130666E-03
 1.240000000E+03 3.058161587E-03
 1.250000000E+03 3.052257933E-03
 1.260000000E+03 3.046418540E-03
 1.270000000E+03 3.040641546E-03
 1.280000000E+03 3.034926252E-03
 1.290000000E+03 3.029271727E-03
 1.300000000E+03 3.023676109E-03
 1.310000000E+03 3.018138697E-03
 1.320000000E+03 3.012659028E-03
 1.330000000E+03 3.007235238E-03
 1.340000000E+03 3.001866397E-03
 1.350000000E+03 2.996552270E-03
 1.360000000E+03 2.991290996E-03
 1.370000000E+03 2.986082109E-03
 1.380000000E+03 2.980924444E-03
 1.390000000E+03 2.975817304E-03
 1.400000000E+03 2.970759990E-03
 1.410000000E+03 2.965751337E-03
 1.420000000E+03 2.960791113E-03
 1.430000000E+03 2.955877688E-03
 1.440000000E+03 2.951010829E-03
 1.450000000E+03 2.946189372E-03
 1.460000000E+03 2.941412851E-03
 1.470000000E+03 2.936680336E-03
 1.480000000E+03 2.931990894E-03
 1.490000000E+03 2.927344758E-03
 1.500000000E+03 2.922740765E-03
 1.510000000E+03 2.918178216E-03
 1.520000000E+03 2.913655946E-03
 1.530000000E+03 2.909173723E-03
 1.540000000E+03 2.904731780E-03
 1.550000000E+03 2.900328021E-03
 1.560000000E+03 2.895962680E-03
 1.570000000E+03 2.891634824E-03
 1.580000000E+03 2.887344453E-03
 1.590000000E+03 2.883090638E-03
 1.600000000E+03 2.878872678E-03
 1.610000000E+03 2.874690108E-03
 1.620000000E+03 2.870542696E-03
 1.630000000E+03 2.866429510E-03
 1.640000000E+03 2.862350550E-03
 1.650000000E+03 2.858304884E-03
 1.660000000E+03 2.854292281E-03
 1.670000000E+03 2.850312274E-03
 1.680000000E+03 2.846363932E-03
 1.690000000E+03 2.842447022E-03
 1.700000000E+03 2.838562010E-03
 1.710000000E+03 2.834707033E-03
 1.720000000E+03 2.830883022E-03
 1.730000000E+03 2.827088581E-03
 1.740000000E+03 2.823323477E-03
 1.750000000E+03 2.819587709E-03
 1.760000000E+03 2.815880347E-03
 1.770000000E+03 2.812200692E-03
 1.780000000E+03 2.808550140E-03
 1.790000000E+03 2.804926131E-03
 1.800000000E+03 2.801329596E-03
 1.810000000E+03 2.797760302E-03
 1.820000000E+03 2.794216853E-03
 1.830000000E+03 2.790700179E-03
 1.840000000E+03 2.787208650E-03
 1.850000000E+03 2.783742733E-03
 1.860000000E+03 2.780302195E-03
 1.870000000E+03 2.776886104E-03
 1.880000000E+03 2.773494693E-03
 1.890000000E+03 2.770127729E-03
 1.900000000E+03 2.766784048E-03
 1.910000000E+03 2.763464348E-03
 1.920000000E+03 2.760167932E-03
 1.930000000E+03 2.756894100E-03
 1.940000000E+03 2.753643086E-03
 1.950000000E+03 2.750415122E-03
 1.960000000E+03 2.747209277E-03
 1.970000000E+03 2.744025085E-03
 1.980000000E+03 2.740862081E-03
 1.990000000E+03 2.737720730E-03
 2.000000000E+03 2.734600566E-03
 2.010000000E+03 2.731501590E-03
 2.020000000E+03 2.728422638E-03
 2.030000000E+03 2.725364175E-03
 2.040000000E+03 2.722326200E-03
 2.050000000E+03 2.719308017E-03
 2.060000000E+03 2.716309857E-03
 2.070000000E+03 2.713331021E-03
 2.080000000E+03 2.710371045E-03
 2.090000000E+03 2.707429929E-03
 2.100000000E+03 2.704508370E-03
 2.110000000E+03 2.701604506E-03
 2.120000000E+03 2.698719734E-03
 2.130000000E+03 2.695852658E-03
 2.140000000E+03 2.693003975E-03
 2.150000000E+03 2.690173220E-03
 2.160000000E+03 2.687359694E-03
 2.170000000E+03 2.684563631E-03
 2.180000000E+03 2.681784565E-03
 2.190000000E+03 2.679022728E-03
 2.200000000E+03 2.676277887E-03
 2.210000000E+03 2.673549578E-03
 2.220000000E+03 2.670837799E-03
 2.230000000E+03 2.668142086E-03
 2.240000000E+03 2.665462671E-03
 2.250000000E+03 2.662799088E-03
 2.260000000E+03 2.660151571E-03
 2.270000000E+03 2.657519188E-03
 2.280000000E+03 2.654902870E-03
 2.290000000E+03 2.652301453E-03
 2.300000000E+03 2.649715403E-03
 2.310000000E+03 2.647144021E-03
 2.320000000E+03 2.644587774E-03
 2.330000000E+03 2.642046195E-03
 2.340000000E+03 2.639519051E-03
 2.350000000E+03 2.637006342E-03
 2.360000000E+03 2.634508070E-03
 2.370000000E+03 2.632023534E-03
 2.380000000E+03 2.629552968E-03
 2.390000000E+03 2.627096605E-03
 2.400000000E+03 2.624653745E-03
 2.410000000E+03 2.622224623E-03
 2.420000000E+03 2.619808540E-03
 2.430000000E+03 2.617405728E-03
 2.440000000E+03 2.615016652E-03
 2.450000000E+03 2.612640150E-03
 2.460000000E+03 2.610276686E-03
 2.470000000E+03 2.607926028E-03
 2.480000000E+03 2.605587943E-03
 2.490000000E+03 2.603262663E-03
 2.500000000E+03 2.600949258E-03
 2.510000000E+03 2.598648425E-03
 2.520000000E+03 2.596360166E-03
 2.530000000E+03 2.594083548E-03
 2.540000000E+03 2.591819037E-03
 2.550000000E+03 2.589566400E-03
 2.560000000E+03 2.587325405E-03
 2.570000000E+03 2.585096285E-03
 2.580000000E+03 2.582878573E-03
 2.590000000E+03 2.580671571E-03
 2.600000000E+03 2.578477142E-03
 2.610000000E+03 2.576293424E-03
 2.620000000E+03 2.574120648E-03
 2.630000000E+03 2.571958816E-03
 2.640000000E+03 2.569808159E-03
 2.650000000E+03 2.567668445E-03
 2.660000000E+03 2.565539209E-03
 2.670000000E+03 2.563420683E-03
 2.680000000E+03 2.561313100E-03
 2.690000000E+03 2.559215296E-03
 2.700000000E+03 2.557128202E-03
 2.710000000E+03 2.555050887E-03
 2.720000000E+03 2.552984050E-03
 2.730000000E+03 2.550927922E-03
 2.740000000E+03 2.548881341E-03
 2.750000000E+03 2.546844073E-03
 2.760000000E+03 2.544817282E-03
 2.770000000E+03 2.542800503E-03
 2.780000000E+03 2.540792804E-03
 2.790000000E+03 2.538794652E-03
 2.800000000E+03 2.536806278E-03
 2.810000000E+03 2.534827217E-03
 2.820000000E+03 2.532857703E-03
 2.830000000E+03 2.530897269E-03
 2.840000000E+03 2.528945683E-03
 2.850000000E+03 2.527004108E-03
 2.860000000E+03 2.525070915E-03
 2.870000000E+03 2.523146570E-03
 2.880000000E+03 2.521231538E-03
 2.890000000E+03 2.519324888E-03
 2.900000000E+03 2.517427318E-03
 2.910000000E+03 2.515538363E-03
 2.920000000E+03 2.513658023E-03
 2.930000000E+03 2.511786297E-03
 2.940000000E+03 2.509922720E-03
 2.950000000E+03 2.508067759E-03
 2.960000000E+03 2.506221412E-03
 2.970000000E+03 2.504382748E-03
 2.980000000E+03 2.502552234E-03
 2.990000000E+03 2.500730567E-03
 3.000000000E+03 2.498916350E-03
 3.010000000E+03 2.497110749E-03
 3.020000000E+03 2.495312365E-03
 3.030000000E+03 2.493522363E-03
 3.040000000E+03 2.491740044E-03
 3.050000000E+03 2.489965176E-03
 3.060000000E+03 2.488198457E-03
 3.070000000E+03 2.486439189E-03
 3.080000000E+03 2.484687604E-03
 3.090000000E+03 2.482943470E-03
 3.100000000E+03 2.481206786E-03
 3.110000000E+03 2.479477553E-03
 3.120000000E+03 2.477755537E-03
 3.130000000E+03 2.476041205E-03
 3.140000000E+03 2.474333858E-03
 3.150000000E+03 2.472633496E-03
 3.160000000E+03 2.470940584E-03
 3.170000000E+03 2.469254658E-03
 3.180000000E+03 2.467575483E-03
 3.190000000E+03 2.465903759E-03
 3.200000000E+03 2.464239020E-03
 3.210000000E+03 2.462580567E-03
 3.220000000E+03 2.460929798E-03
 3.230000000E+03 2.459285082E-03
 3.240000000E+03 2.457647119E-03
 3.250000000E+03 2.456016373E-03
 3.260000000E+03 2.454391913E-03
 3.270000000E+03 2.452774206E-03
 3.280000000E+03 2.451162785E-03
 3.290000000E+03 2.449557884E-03
 3.300000000E+03 2.447959268E-03
 3.310000000E+03 2.446367638E-03
 3.320000000E+03 2.444782062E-03
 3.330000000E+03 2.443202538E-03
 3.340000000E+03 2.441629069E-03
 3.350000000E+03 2.440062352E-03
 3.360000000E+03 2.438502153E-03
 3.370000000E+03 2.436947310E-03
 3.380000000E+03 2.435398987E-03
 3.390000000E+03 2.433856484E-03
 3.400000000E+03 2.432320267E-03
 3.410000000E+03 2.430789871E-03
 3.420000000E+03 2.429265296E-03
 3.430000000E+03 2.427746775E-03
 3.440000000E+03 2.426233841E-03
 3.450000000E+03 2.424726961E-03
 3.460000000E+03 2.423225669E-03
 3.470000000E+03 2.421730198E-03
 3.480000000E+03 2.420240315E-03
 3.490000000E+03 2.418756252E-03
 3.500000000E+03 2.417278010E-03
 3.510000000E+03 2.415804891E-03
 3.520000000E+03 2.414337127E-03
 3.530000000E+03 2.412875416E-03
 3.540000000E+03 2.411419060E-03
 3.550000000E+03 2.409968060E-03
 3.560000000E+03 2.408522181E-03
 3.570000000E+03 2.407082357E-03
 3.580000000E+03 2.405647188E-03
 3.590000000E+03 2.404217375E-03
 3.600000000E+03 2.402793616E-03
 3.610000000E+03 2.401374048E-03
 3.620000000E+03 2.399959834E-03
 3.630000000E+03 2.398550743E-03
 3.640000000E+03 2.397147240E-03
 3.650000000E+03 2.395748394E-03
 3.660000000E+03 2.394354669E-03
 3.670000000E+03 2.392966300E-03
 3.680000000E+03 2.391582588E-03
 3.690000000E+03 2.390203765E-03
 3.700000000E+03 2.388830297E-03
 3.710000000E+03 2.387461485E-03
 3.720000000E+03 2.386097331E-03
 3.730000000E+03 2.384738298E-03
 3.740000000E+03 2.383383689E-03
 3.750000000E+03 2.382034203E-03
 3.760000000E+03 2.380689373E-03
 3.770000000E+03 2.379349200E-03
 3.780000000E+03 2.378013451E-03
 3.790000000E+03 2.376683056E-03
 3.800000000E+03 2.375356853E-03
 3.810000000E+03 2.374035073E-03
 3.820000000E+03 2.372718183E-03
 3.830000000E+03 2.371405251E-03
 3.840000000E+03 2.370097674E-03
 3.850000000E+03 2.368794056E-03
 3.860000000E+03 2.367494861E-03
 3.870000000E+03 2.366200555E-03
 3.880000000E+03 2.364909975E-03
 3.890000000E+03 2.363624051E-03
 3.900000000E+03 2.362342784E-03
 3.910000000E+03 2.361065708E-03
 3.920000000E+03 2.359792590E-03
 3.930000000E+03 2.358523896E-03
 3.940000000E+03 2.357259858E-03
 3.950000000E+03 2.356000012E-03
 3.960000000E+03 2.354743890E-03
 3.970000000E+03 2.353491960E-03
 3.980000000E+03 2.352243988E-03
 3.990000000E+03 2.351000672E-03
 4.000000000E+03 2.349761780E-03
 4.010000000E+03 2.348526148E-03
 4.020000000E+03 2.347294940E-03
 4.030000000E+03 2.346067457E-03
 4.040000000E+03 2.344844863E-03
 4.050000000E+03 2.343625296E-03
 4.060000000E+03 2.342409920E-03
 4.070000000E+03 2.341198502E-03
 4.080000000E+03 2.339991042E-03
 4.090000000E+03 2.338787541E-03
 4.100000000E+03 2.337587764E-03
 4.110000000E+03 2.336391946E-03
 4.120000000E+03 2.335199621E-03
 4.130000000E+03 2.334011719E-03
 4.140000000E+03 2.332827076E-03
 4.150000000E+03 2.331646625E-03
 4.160000000E+03 2.330469899E-03
 4.170000000E+03 2.329296432E-03
 4.180000000E+03 2.328126691E-03
 4.190000000E+03 2.326960908E-03
 4.200000000E+03 2.325798618E-03
 4.210000000E+03 2.324640052E-03
 4.220000000E+03 2.323485212E-03
 4.230000000E+03 2.322333632E-03
 4.240000000E+03 2.321186010E-03
 4.250000000E+03 2.320041880E-03
 4.260000000E+03 2.318901243E-03
 4.270000000E+03 2.317763865E-03
 4.280000000E+03 2.316630213E-03
 4.290000000E+03 2.315499820E-03
 4.300000000E+03 2.314373385E-03
 4.310000000E+03 2.313249977E-03
 4.320000000E+03 2.312130062E-03
 4.330000000E+03 2.311013872E-03
 4.340000000E+03 2.309900708E-03
 4.350000000E+03 2.308790339E-03
 4.360000000E+03 2.307684394E-03
 4.370000000E+03 2.306581009E-03
 4.380000000E+03 2.305481583E-03
 4.390000000E+03 2.304385416E-03
 4.400000000E+03 2.303291811E-03
 4.410000000E+03 2.302202163E-03
 4.420000000E+03 2.301115310E-03
 4.430000000E+03 2.300031949E-03
 4.440000000E+03 2.298951615E-03
 4.450000000E+03 2.297874540E-03
 4.460000000E+03 2.296800958E-03
 4.470000000E+03 2.295730170E-03
 4.480000000E+03 2.294662409E-03
 4.490000000E+03 2.293597907E-03
 4.500000000E+03 2.292536665E-03
 4.510000000E+03 2.291478449E-03
 4.520000000E+03 2.290423261E-03
 4.530000000E+03 2.289371099E-03
 4.540000000E+03 2.288321964E-03
 4.550000000E+03 2.287276089E-03
 4.560000000E+03 2.286233008E-03
 4.570000000E+03 2.285192721E-03
 4.580000000E+03 2.284155926E-03
 4.590000000E+03 2.283121925E-03
 4.600000000E+03 2.282090718E-03
 4.610000000E+03 2.281062538E-03
 4.620000000E+03 2.280037152E-03
 4.630000000E+03 2.279014792E-03
 4.640000000E+03 2.277995227E-03
 4.650000000E+03 2.276978688E-03
 4.660000000E+03 2.275965177E-03
 4.670000000E+03 2.274954226E-03
 4.680000000E+03 2.273946069E-03
 4.690000000E+03 2.272940939E-03
 4.700000000E+03 2.271938603E-03
 4.710000000E+03 2.270938829E-03
 4.720000000E+03 2.269942081E-03
 4.730000000E+03 2.268948359E-03
 4.740000000E+03 2.267956967E-03
 4.750000000E+03 2.266968135E-03
 4.760000000E+03 2.265982097E-03
 4.770000000E+03 2.264999319E-03
 4.780000000E+03 2.264018636E-03
 4.790000000E+03 2.263040980E-03
 4.800000000E+03 2.262065886E-03
 4.810000000E+03 2.261093352E-03
 4.820000000E+03 2.260123612E-03
 4.830000000E+03 2.259156434E-03
 4.840000000E+03 2.258192049E-03
 4.850000000E+03 2.257229993E-03
 4.860000000E+03 2.256270731E-03
 4.870000000E+03 2.255314030E-03
 4.880000000E+03 2.254359890E-03
 4.890000000E+03 2.253408544E-03
 4.900000000E+03 2.252459060E-03
 4.910000000E+03 2.251512837E-03
 4.920000000E+03 2.250568708E-03
 4.930000000E+03 2.249627141E-03
 4.940000000E+03 2.248688368E-03
 4.950000000E+03 2.247751923E-03
 4.960000000E+03 2.246817807E-03
 4.970000000E+03 2.245886251E-03
 4.980000000E+03 2.244957024E-03
 4.990000000E+03 2.244030125E-03
 5.000000000E+03 2.243106253E-03
 5.010000000E+03 2.242184477E-03
 5.020000000E+03 2.241265029E-03
 5.030000000E+03 2.240347909E-03
 5.040000000E+03 2.239433350E-03
 5.050000000E+03 2.238521120E-03
 5.060000000E+03 2.237610985E-03
 5.070000000E+03 2.236703644E-03
 5.080000000E+03 2.235798165E-03
 5.090000000E+03 2.234895481E-03
 5.100000000E+03 2.233995125E-03
 5.110000000E+03 2.233096631E-03
 5.120000000E+03 2.232200699E-03
 5.130000000E+03 2.231306862E-03
 5.140000000E+03 2.230415586E-03
 5.150000000E+03 2.229526406E-03
 5.160000000E+03 2.228639787E-03
 5.170000000E+03 2.227754798E-03
 5.180000000E+03 2.226872370E-03
 5.190000000E+03 2.225992503E-03
 5.200000000E+03 2.225114731E-03
 5.210000000E+03 2.224238822E-03
 5.220000000E+03 2.223365242E-03
 5.230000000E+03 2.222493757E-03
 5.240000000E+03 2.221624833E-03
 5.250000000E+03 2.220757538E-03
 5.260000000E+03 2.219893038E-03
 5.270000000E+03 2.219030168E-03
 5.280000000E+03 2.218169626E-03
 5.290000000E+03 2.217311179E-03
 5.300000000E+03 2.216454828E-03
 5.310000000E+03 2.215600573E-03
 5.320000000E+03 2.214748412E-03
 5.330000000E+03 2.213898581E-03
 5.340000000E+03 2.213050611E-03
 5.350000000E+03 2.212204738E-03
 5.360000000E+03 2.211360959E-03
 5.370000000E+03 2.210519044E-03
 5.380000000E+03 2.209679456E-03
 5.390000000E+03 2.208841965E-03
 5.400000000E+03 2.208006103E-03
 5.410000000E+03 2.207172569E-03
 5.420000000E+03 2.206341131E-03
 5.430000000E+03 2.205511322E-03
 5.440000000E+03 2.204683842E-03
 5.450000000E+03 2.203858225E-03
 5.460000000E+03 2.203034470E-03
 5.470000000E+03 2.202213043E-03
 5.480000000E+03 2.201393247E-03
 5.490000000E+03 2.200575545E-03
 5.500000000E+03 2.199759707E-03
 5.510000000E+03 2.198945964E-03
 5.520000000E+03 2.198133850E-03
 5.530000000E+03 2.197323833E-03
 5.540000000E+03 2.196515677E-03
 5.550000000E+03 2.195709385E-03
 5.560000000E+03 2.194905188E-03
 5.570000000E+03 2.194103086E-03
 5.580000000E+03 2.193302382E-03
 5.590000000E+03 2.192503773E-03
 5.600000000E+03 2.191707026E-03
 5.610000000E+03 2.190911677E-03
 5.620000000E+03 2.190118656E-03
 5.630000000E+03 2.189327497E-03
 5.640000000E+03 2.188537968E-03
 5.650000000E+03 2.187750535E-03
 5.660000000E+03 2.186964964E-03
 5.670000000E+03 2.186180791E-03
 5.680000000E+03 2.185398480E-03
 5.690000000E+03 2.184618264E-03
 5.700000000E+03 2.183839679E-03
 5.710000000E+03 2.183062723E-03
 5.720000000E+03 2.182287863E-03
 5.730000000E+03 2.181514399E-03
 5.740000000E+03 2.180743031E-03
 5.750000000E+03 2.179973526E-03
 5.760000000E+03 2.179205418E-03
 5.770000000E+03 2.178439405E-03
 5.780000000E+03 2.177674323E-03
 5.790000000E+03 2.176911803E-03
 5.800000000E+03 2.176150680E-03
 5.810000000E+03 2.175391186E-03
 5.820000000E+03 2.174633322E-03
 5.830000000E+03 2.173877787E-03
 5.840000000E+03 2.173123183E-03
 5.850000000E+03 2.172370674E-03
 5.860000000E+03 2.171619562E-03
 5.870000000E+03 2.170870779E-03
 5.880000000E+03 2.170122694E-03
 5.890000000E+03 2.169376938E-03
 5.900000000E+03 2.168633044E-03
 5.910000000E+03 2.167889848E-03
 5.920000000E+03 2.167148748E-03
 5.930000000E+03 2.166409511E-03
 5.940000000E+03 2.165671671E-03
 5.950000000E+03 2.164935460E-03
 5.960000000E+03 2.164201345E-03
 5.970000000E+03 2.163468162E-03
 5.980000000E+03 2.162737073E-03
 5.990000000E+03 2.162007149E-03
 6.000000000E+03 2.161278855E-03
 6.010000000E+03 2.160552423E-03
 6.020000000E+03 2.159827622E-03
 6.030000000E+03 2.159103984E-03
 6.040000000E+03 2.158382209E-03
 6.050000000E+03 2.157662064E-03
 6.060000000E+03 2.156943316E-03
 6.070000000E+03 2.156226197E-03
 6.080000000E+03 2.155510010E-03
 6.090000000E+03 2.154796151E-03
 6.100000000E+03 2.154083690E-03
 6.110000000E+03 2.153372625E-03
 6.120000000E+03 2.152662957E-03
 6.130000000E+03 2.151955152E-03
 6.140000000E+03 2.151248511E-03
 6.150000000E+03 2.150543034E-03
 6.160000000E+03 2.149839886E-03
 6.170000000E+03 2.149137435E-03
 6.180000000E+03 2.148437081E-03
 6.190000000E+03 2.147737890E-03
 6.200000000E+03 2.147040097E-03
 6.210000000E+03 2.146343933E-03
 6.220000000E+03 2.145648934E-03
 6.230000000E+03 2.144956263E-03
 6.240000000E+03 2.144264290E-03
 6.250000000E+03 2.143573947E-03
 6.260000000E+03 2.142884769E-03
 6.270000000E+03 2.142197452E-03
 6.280000000E+03 2.141511301E-03
 6.290000000E+03 2.140826546E-03
 6.300000000E+03 2.140143421E-03
 6.310000000E+03 2.139461460E-03
 6.320000000E+03 2.138781128E-03
 6.330000000E+03 2.138102194E-03
 6.340000000E+03 2.137424191E-03
 6.350000000E+03 2.136748051E-03
 6.360000000E+03 2.136073308E-03
 6.370000000E+03 2.135399729E-03
 6.380000000E+03 2.134728013E-03
 6.390000000E+03 2.134056995E-03
 6.400000000E+03 2.133387607E-03
 6.410000000E+03 2.132719615E-03
 6.420000000E+03 2.132052789E-03
 6.430000000E+03 2.131387824E-03
 6.440000000E+03 2.130723558E-03
 6.450000000E+03 2.130060922E-03
 6.460000000E+03 2.129399683E-03
 6.470000000E+03 2.128739841E-03
 6.480000000E+03 2.128080931E-03
 6.490000000E+03 2.127423882E-03
 6.500000000E+03 2.126767999E-03
 6.510000000E+03 2.126113046E-03
 6.520000000E+03 2.125459723E-03
 6.530000000E+03 2.124807797E-03
 6.540000000E+03 2.124156803E-03
 6.550000000E+03 2.123507438E-03
 6.560000000E+03 2.122859238E-03
 6.570000000E+03 2.122212667E-03
 6.580000000E+03 2.121566562E-03
 6.590000000E+03 2.120922320E-03
 6.600000000E+03 2.120279241E-03
 6.610000000E+03 2.119637327E-03
 6.620000000E+03 2.118996810E-03
 6.630000000E+03 2.118357690E-03
 6.640000000E+03 2.117719967E-03
 6.650000000E+03 2.117082709E-03
 6.660000000E+03 2.116447315E-03
 6.670000000E+03 2.115812851E-03
 6.680000000E+03 2.115179785E-03
 6.690000000E+03 2.114548115E-03
 6.700000000E+03 2.113917610E-03
 6.710000000E+03 2.113288268E-03
 6.720000000E+03 2.112660324E-03
 6.730000000E+03 2.112032846E-03
 6.740000000E+03 2.111407230E-03
 6.750000000E+03 2.110782545E-03
 6.760000000E+03 2.110159490E-03
 6.770000000E+03 2.109537134E-03
 6.780000000E+03 2.108916407E-03
 6.790000000E+03 2.108296612E-03
 6.800000000E+03 2.107678214E-03
 6.810000000E+03 2.107060514E-03
 6.820000000E+03 2.106444445E-03
 6.830000000E+03 2.105829073E-03
 6.840000000E+03 2.105215332E-03
 6.850000000E+03 2.104602754E-03
 6.860000000E+03 2.103991341E-03
 6.870000000E+03 2.103380626E-03
 6.880000000E+03 2.102771774E-03
 6.890000000E+03 2.102163620E-03
 6.900000000E+03 2.101556398E-03
 6.910000000E+03 2.100950805E-03
 6.920000000E+03 2.100346144E-03
 6.930000000E+03 2.099742880E-03
 6.940000000E+03 2.099140547E-03
 6.950000000E+03 2.098539146E-03
 6.960000000E+03 2.097939141E-03
 6.970000000E+03 2.097339835E-03
 6.980000000E+03 2.096741926E-03
 6.990000000E+03 2.096145181E-03
 7.000000000E+03 2.095549600E-03
 7.010000000E+03 2.094954951E-03
 7.020000000E+03 2.094361465E-03
 7.030000000E+03 2.093768911E-03
 7.040000000E+03 2.093177754E-03
 7.050000000E+03 2.092587529E-03
 7.060000000E+03 2.091998467E-03
 7.070000000E+03 2.091410570E-03
 7.080000000E+03 2.090823371E-03
 7.090000000E+03 2.090237569E-03
 7.100000000E+03 2.089652698E-03
 7.110000000E+03 2.089068992E-03
 7.120000000E+03 2.088486450E-03
 7.130000000E+03 2.087905072E-03
 7.140000000E+03 2.087324392E-03
 7.150000000E+03 2.086744644E-03
 7.160000000E+03 2.086166292E-03
 7.170000000E+03 2.085588872E-03
 7.180000000E+03 2.085012617E-03
 7.190000000E+03 2.084437292E-03
 7.200000000E+03 2.083862899E-03
 7.210000000E+03 2.083289670E-03
 7.220000000E+03 2.082717372E-03
 7.230000000E+03 2.082146471E-03
 7.240000000E+03 2.081576036E-03
 7.250000000E+03 2.081007231E-03
 7.260000000E+03 2.080438891E-03
 7.270000000E+03 2.079871949E-03
 7.280000000E+03 2.079305705E-03
 7.290000000E+03 2.078740625E-03
 7.300000000E+03 2.078176942E-03
 7.310000000E+03 2.077613492E-03
 7.320000000E+03 2.077051671E-03
 7.330000000E+03 2.076490549E-03
 7.340000000E+03 2.075930359E-03
 7.350000000E+03 2.075371332E-03
 7.360000000E+03 2.074813005E-03
 7.370000000E+03 2.074256074E-03
 7.380000000E+03 2.073699608E-03
 7.390000000E+03 2.073144773E-03
 7.400000000E+03 2.072590636E-03
 7.410000000E+03 2.072037198E-03
 7.420000000E+03 2.071485156E-03
 7.430000000E+03 2.070933813E-03
 7.440000000E+03 2.070383402E-03
 7.450000000E+03 2.069834154E-03
 7.460000000E+03 2.069285605E-03
 7.470000000E+03 2.068738220E-03
 7.480000000E+03 2.068191534E-03
 7.490000000E+03 2.067646245E-03
 7.500000000E+03 2.067101654E-03
 7.510000000E+03 2.066557761E-03
 7.520000000E+03 2.066015033E-03
 7.530000000E+03 2.065473469E-03
 7.540000000E+03 2.064932371E-03
 7.550000000E+03 2.064392436E-03
 7.560000000E+03 2.063853666E-03
 7.570000000E+03 2.063315362E-03
 7.580000000E+03 2.062777989E-03
 7.590000000E+03 2.062242012E-03
 7.600000000E+03 2.061706502E-03
 7.610000000E+03 2.061172156E-03
 7.620000000E+03 2.060638741E-03
 7.630000000E+03 2.060106024E-03
 7.640000000E+03 2.059574239E-03
 7.650000000E+03 2.059043618E-03
 7.660000000E+03 2.058513695E-03
 7.670000000E+03 2.057984704E-03
 7.680000000E+03 2.057456644E-03
 7.690000000E+03 2.056929283E-03
 7.700000000E+03 2.056403086E-03
 7.710000000E+03 2.055877587E-03
 7.720000000E+03 2.055353252E-03
 7.730000000E+03 2.054829383E-03
 7.740000000E+03 2.054306678E-03
 7.750000000E+03 2.053784439E-03
 7.760000000E+03 2.053263597E-03
 7.770000000E+03 2.052743221E-03
 7.780000000E+03 2.052224008E-03
 7.790000000E+03 2.051705727E-03
 7.800000000E+03 2.051187679E-03
 7.810000000E+03 2.050671261E-03
 7.820000000E+03 2.050155308E-03
 7.830000000E+03 2.049640287E-03
 7.840000000E+03 2.049126197E-03
 7.850000000E+03 2.048612805E-03
 7.860000000E+03 2.048100345E-03
 7.870000000E+03 2.047588816E-03
 7.880000000E+03 2.047077753E-03
 7.890000000E+03 2.046567854E-03
 7.900000000E+03 2.046058653E-03
 7.910000000E+03 2.045550384E-03
 7.920000000E+03 2.045043046E-03
 7.930000000E+03 2.044536406E-03
 7.940000000E+03 2.044030698E-03
 7.950000000E+03 2.043525688E-03
 7.960000000E+03 2.043021377E-03
 7.970000000E+03 2.042518230E-03
 7.980000000E+03 2.042015549E-03
 7.990000000E+03 2.041513799E-03
 8.000000000E+03 2.041013213E-03
 8.010000000E+03 2.040513093E-03
 8.020000000E+03 2.040013671E-03
 8.030000000E+03 2.039515413E-03
 8.040000000E+03 2.039017621E-03
 8.050000000E+03 2.038520761E-03
 8.060000000E+03 2.038024599E-03
 8.070000000E+03 2.037529135E-03
 8.080000000E+03 2.037034836E-03
 8.090000000E+03 2.036541235E-03
 8.100000000E+03 2.036048565E-03
 8.110000000E+03 2.035556361E-03
 8.120000000E+03 2.035065088E-03
 8.130000000E+03 2.034574514E-03
 8.140000000E+03 2.034084871E-03
 8.150000000E+03 2.033595694E-03
 8.160000000E+03 2.033107681E-03
 8.170000000E+03 2.032620134E-03
 8.180000000E+03 2.032133285E-03
 8.190000000E+03 2.031647833E-03
 8.200000000E+03 2.031162381E-03
 8.210000000E+03 2.030677861E-03
 8.220000000E+03 2.030194504E-03
 8.230000000E+03 2.029711613E-03
 8.240000000E+03 2.029229421E-03
 8.250000000E+03 2.028748393E-03
 8.260000000E+03 2.028267598E-03
 8.270000000E+03 2.027787967E-03
 8.280000000E+03 2.027308801E-03
 8.290000000E+03 2.026830567E-03
 8.300000000E+03 2.026352799E-03
 8.310000000E+03 2.025876194E-03
 8.320000000E+03 2.025400056E-03
 8.330000000E+03 2.024924848E-03
 8.340000000E+03 2.024450339E-03
 8.350000000E+03 2.023976296E-03
 8.360000000E+03 2.023503417E-03
 8.370000000E+03 2.023030771E-03
 8.380000000E+03 2.022559056E-03
 8.390000000E+03 2.022088272E-03
 8.400000000E+03 2.021617955E-03
 8.410000000E+03 2.021148568E-03
 8.420000000E+03 2.020679647E-03
 8.430000000E+03 2.020211658E-03
 8.440000000E+03 2.019744599E-03
 8.450000000E+03 2.019277774E-03
 8.460000000E+03 2.018811880E-03
 8.470000000E+03 2.018346684E-03
 8.480000000E+03 2.017882187E-03
 8.490000000E+03 2.017418388E-03
 8.500000000E+03 2.016955521E-03
 8.510000000E+03 2.016493119E-03
 8.520000000E+03 2.016031416E-03
 8.530000000E+03 2.015570179E-03
 8.540000000E+03 2.015110105E-03
 8.550000000E+03 2.014650730E-03
 8.560000000E+03 2.014191821E-03
 8.570000000E+03 2.013733611E-03
 8.580000000E+03 2.013276098E-03
 8.590000000E+03 2.012819052E-03
 8.600000000E+03 2.012363169E-03
 8.610000000E+03 2.011907753E-03
 8.620000000E+03 2.011453267E-03
 8.630000000E+03 2.010999015E-03
 8.640000000E+03 2.010545461E-03
 8.650000000E+03 2.010092838E-03
 8.660000000E+03 2.009640681E-03
 8.670000000E+03 2.009189455E-03
 8.680000000E+03 2.008738695E-03
 8.690000000E+03 2.008288866E-03
 8.700000000E+03 2.007839503E-03
 8.710000000E+03 2.007390838E-03
 8.720000000E+03 2.006942639E-03
 8.730000000E+03 2.006495837E-03
 8.740000000E+03 2.006048569E-03
 8.750000000E+03 2.005602699E-03
 8.760000000E+03 2.005157527E-03
 8.770000000E+03 2.004712587E-03
 8.780000000E+03 2.004268812E-03
 8.790000000E+03 2.003825270E-03
 8.800000000E+03 2.003382659E-03
 8.810000000E+03 2.002940513E-03
 8.820000000E+03 2.002499066E-03
 8.830000000E+03 2.002058318E-03
 8.840000000E+03 2.001618035E-03
 8.850000000E+03 2.001178451E-03
 8.860000000E+03 2.000739565E-03
 8.870000000E+03 2.000301378E-03
 8.880000000E+03 1.999863889E-03
 8.890000000E+03 1.999426633E-03
 8.900000000E+03 1.998990308E-03
 8.910000000E+03 1.998554682E-03
 8.920000000E+03 1.998119755E-03
 8.930000000E+03 1.997685293E-03
 8.940000000E+03 1.997251529E-03
 8.950000000E+03 1.996818231E-03
 8.960000000E+03 1.996385865E-03
 8.970000000E+03 1.995953964E-03
 8.980000000E+03 1.995522529E-03
 8.990000000E+03 1.995091792E-03
 9.000000000E+03 1.994661754E-03
 9.010000000E+03 1.994232414E-03
 9.020000000E+03 1.993803540E-03
 9.030000000E+03 1.993375132E-03
 9.040000000E+03 1.992947655E-03
 9.050000000E+03 1.992520643E-03
 9.060000000E+03 1.992094330E-03
 9.070000000E+03 1.991668483E-03
 9.080000000E+03 1.991243334E-03
 9.090000000E+03 1.990818884E-03
 9.100000000E+03 1.990394900E-03
 9.110000000E+03 1.989971614E-03
 9.120000000E+03 1.989548793E-03
 9.130000000E+03 1.989126671E-03
 9.140000000E+03 1.988705015E-03
 9.150000000E+03 1.988284057E-03
 9.160000000E+03 1.987863565E-03