# u+ vs. y+ at Re-theta = 10000, based on incompressible Coles velocity law along with van Driest damping near wall
# (see Bardina et al, NASA TM 110446, April 1997),
# then modified using Van Driest I scaling for 4 different freestream M and constant wall temperatures (Tw).
# Tini is freestream T
# Taw is adiabatic wall temperature from: Taw=Tini*(1+0.89(gamma-1)/2*M**2)
VARIABLES = "y+","u+"
ZONE T="M=2.0, Tw/Tini=1.712, Tw/Taw=1.0"
 1.989413947E-01 1.989424974E-01
 2.984121144E-01 2.984133065E-01
 3.978829086E-01 3.978826106E-01
 4.973536134E-01 4.973495007E-01
 5.968242884E-01 5.968123078E-01
 6.962950826E-01 6.962698102E-01
 7.957658172E-01 7.957195044E-01
 8.952364922E-01 8.951591849E-01
 9.947072268E-01 9.945858717E-01
 1.094177961E+00 1.093996048E+00
 1.193649054E+00 1.193385959E+00
 1.293118954E+00 1.292750955E+00
 1.392590046E+00 1.392084956E+00
 1.492061019E+00 1.491382003E+00
 1.591531992E+00 1.590636015E+00
 1.691002011E+00 1.689838052E+00
 1.790472984E+00 1.788980961E+00
 1.889943957E+00 1.888054967E+00
 1.989413977E+00 1.987050056E+00
 2.088885069E+00 2.085952997E+00
 2.188355923E+00 2.184755087E+00
 2.287827015E+00 2.283441067E+00
 2.387296915E+00 2.381995916E+00
 2.486768007E+00 2.480407953E+00
 2.586237907E+00 2.578660011E+00
 2.685709000E+00 2.676733017E+00
 2.785181046E+00 2.774611950E+00
 2.884650946E+00 2.872277021E+00
 2.984122038E+00 2.969708920E+00
 3.083591938E+00 3.066889048E+00
 3.183063030E+00 3.163795948E+00
 3.282533884E+00 3.260406017E+00
 3.382004023E+00 3.356698990E+00
 3.481475115E+00 3.452652931E+00
 3.580945969E+00 3.548243999E+00
 3.680416107E+00 3.643448114E+00
 3.779887915E+00 3.738243103E+00
 3.879358053E+00 3.832606077E+00
 3.978828907E+00 3.926511049E+00
 4.078299999E+00 4.019935131E+00
 4.177770138E+00 4.112854958E+00
 4.277241230E+00 4.205247879E+00
 4.376711845E+00 4.297091961E+00
 4.476181984E+00 4.388363838E+00
 4.575653076E+00 4.479042053E+00
 4.675124168E+00 4.569104195E+00
 4.774593830E+00 4.658531189E+00
 4.874064922E+00 4.747303009E+00
 4.973536015E+00 4.835402012E+00
 5.073007107E+00 4.922809124E+00
 5.172475815E+00 5.009507179E+00
 5.271947861E+00 5.095480919E+00
 5.371418953E+00 5.180716038E+00
 5.470890045E+00 5.265198231E+00
 5.570361137E+00 5.348915100E+00
 5.669830799E+00 5.431852818E+00
 5.769300938E+00 5.514006138E+00
 5.868772984E+00 5.595361233E+00
 5.968243122E+00 5.675909996E+00
 6.067714214E+00 5.755648136E+00
 6.167183876E+00 5.834567070E+00
 6.266654968E+00 5.912662983E+00
 6.366126060E+00 5.989931107E+00
 6.465597153E+00 6.066369057E+00
 6.565067768E+00 6.141973019E+00
 6.664536953E+00 6.216744900E+00
 6.764008999E+00 6.290679932E+00
 6.863480091E+00 6.363782883E+00
 6.962951183E+00 6.436051846E+00
 7.062420845E+00 6.507489204E+00
 7.161891937E+00 6.578098774E+00
 7.261363029E+00 6.647883892E+00
 7.360833168E+00 6.716845989E+00
 7.460303783E+00 6.784993172E+00
 7.559774876E+00 6.852330208E+00
 7.659245014E+00 6.918859005E+00
 7.758716106E+00 6.984587193E+00
 7.858187199E+00 7.049521923E+00
 7.957657814E+00 7.113669872E+00
 8.057127953E+00 7.177038193E+00
 8.156599045E+00 7.239634991E+00
 8.256069183E+00 7.301464081E+00
 8.355540276E+00 7.362536907E+00
 8.455012321E+00 7.422861099E+00
 8.554482460E+00 7.482443810E+00
 8.653952599E+00 7.541295052E+00
 8.753423691E+00 7.599422932E+00
 8.852893829E+00 7.656836033E+00
 8.952363968E+00 7.713542938E+00
 9.051835060E+00 7.769553185E+00
 9.151306152E+00 7.824875832E+00
 9.250777245E+00 7.879519939E+00
 9.350247383E+00 7.933493137E+00
 9.449718475E+00 7.986804962E+00
 9.549188614E+00 8.039466858E+00
 9.648660660E+00 8.091486931E+00
 9.748130798E+00 8.142873764E+00
 9.847600937E+00 8.193634987E+00
 9.947071075E+00 8.243782043E+00
 1.004654026E+01 8.293322563E+00
 1.014601040E+01 8.342267036E+00
 1.024547958E+01 8.390622139E+00
 1.034494972E+01 8.438397408E+00
 1.044443035E+01 8.485602379E+00
 1.054389954E+01 8.532244682E+00
 1.064336967E+01 8.578334808E+00
 1.074283981E+01 8.623877525E+00
 1.084230995E+01 8.668886185E+00
 1.094178009E+01 8.713367462E+00
 1.104125023E+01 8.757324219E+00
 1.114072037E+01 8.800771713E+00
 1.124018955E+01 8.843715668E+00
 1.133965969E+01 8.886161804E+00
 1.143912983E+01 8.928119659E+00
 1.153859997E+01 8.969595909E+00
 1.163807964E+01 9.010598183E+00
 1.173754978E+01 9.051137924E+00
 1.183701992E+01 9.091215134E+00
 1.193649006E+01 9.130840302E+00
 1.203596020E+01 9.170024872E+00
 1.213543034E+01 9.208771706E+00
 1.223490047E+01 9.247086525E+00
 1.233436966E+01 9.284976006E+00
 1.243383980E+01 9.322452545E+00
 1.253330994E+01 9.359515190E+00
 1.263278008E+01 9.396176338E+00
 1.273225021E+01 9.432437897E+00
 1.283172035E+01 9.468310356E+00
 1.293118954E+01 9.503794670E+00
 1.303065968E+01 9.538900375E+00
 1.313014030E+01 9.573632240E+00
 1.322961044E+01 9.607993126E+00
 1.332907009E+01 9.641996384E+00
 1.342854977E+01 9.675642014E+00
 1.352801991E+01 9.708936691E+00
 1.362749004E+01 9.741888046E+00
 1.372696018E+01 9.774497986E+00
 1.382643032E+01 9.806771278E+00
 1.392590046E+01 9.838717461E+00
 1.402536964E+01 9.870336533E+00
 1.412483978E+01 9.901637077E+00
 1.422430992E+01 9.932624817E+00
 1.432378006E+01 9.963298798E+00
 1.442325974E+01 9.993670464E+00
 1.452272987E+01 1.002373981E+01
 1.462220001E+01 1.005350971E+01
 1.472167015E+01 1.008298969E+01
 1.482114029E+01 1.011219025E+01
 1.492061043E+01 1.014109993E+01
 1.502007961E+01 1.016973019E+01
 1.511954975E+01 1.019808006E+01
 1.521901989E+01 1.022616959E+01
 1.531849003E+01 1.025399017E+01
 1.541796017E+01 1.028153992E+01
 1.551743031E+01 1.030883980E+01
 1.561690044E+01 1.033588028E+01
 1.571636963E+01 1.036266994E+01
 1.581585026E+01 1.038920975E+01
 1.591532040E+01 1.041551018E+01
 1.601478958E+01 1.044155979E+01
 1.611425972E+01 1.046739006E+01
 1.621372986E+01 1.049297047E+01
 1.631320000E+01 1.051832008E+01
 1.641267014E+01 1.054345036E+01
 1.651214027E+01 1.056834984E+01
 1.661161041E+01 1.059304047E+01
 1.671108055E+01 1.061750031E+01
 1.681055069E+01 1.064175034E+01
 1.691002083E+01 1.066578960E+01
 1.700948906E+01 1.068962002E+01
 1.710895920E+01 1.071323967E+01
 1.720842934E+01 1.073666000E+01
 1.730791092E+01 1.075986958E+01
 1.740737915E+01 1.078289032E+01
 1.750684929E+01 1.080572033E+01
 1.760631943E+01 1.082835007E+01
 1.770578957E+01 1.085079002E+01
 1.780525970E+01 1.087304974E+01
 1.790472984E+01 1.089511967E+01
 1.800419998E+01 1.091701031E+01
 1.810367012E+01 1.093871975E+01
 1.820314026E+01 1.096024990E+01
 1.830261040E+01 1.098159981E+01
 1.840208054E+01 1.100279045E+01
 1.850155067E+01 1.102379990E+01
 1.860102081E+01 1.104463959E+01
 1.870049095E+01 1.106532001E+01
 1.879997063E+01 1.108584023E+01
 1.889944077E+01 1.110618973E+01
 1.899891090E+01 1.112637997E+01
 1.909837914E+01 1.114640999E+01
 1.919784927E+01 1.116629028E+01
 1.929731941E+01 1.118601036E+01
 1.939678955E+01 1.120559025E+01
 1.949625969E+01 1.122500992E+01
 1.959572983E+01 1.124427986E+01
 1.969519997E+01 1.126340961E+01
 1.979467010E+01 1.128240013E+01
 1.989414024E+01 1.130123997E+01
 1.999361992E+01 1.131993961E+01
 2.009308052E+01 1.133850002E+01
 2.019256020E+01 1.135692024E+01
 2.029203033E+01 1.137520981E+01
 2.039150047E+01 1.139336014E+01
 2.049097061E+01 1.141139030E+01
 2.059044075E+01 1.142928028E+01
 2.068991089E+01 1.144703960E+01
 2.078937912E+01 1.146467972E+01
 2.088884926E+01 1.148217964E+01
 2.098831940E+01 1.149956989E+01
 2.108778954E+01 1.151683044E+01
 2.118725967E+01 1.153396034E+01
 2.128672981E+01 1.155097961E+01
 2.138619995E+01 1.156787968E+01
 2.148567963E+01 1.158465958E+01
 2.158514977E+01 1.160132980E+01
 2.168461990E+01 1.161787987E+01
 2.178409004E+01 1.163432026E+01
 2.188356018E+01 1.165065002E+01
 2.198303032E+01 1.166685963E+01
 2.208250046E+01 1.168297005E+01
 2.218197060E+01 1.169896030E+01
 2.228144073E+01 1.171485996E+01
 2.238091087E+01 1.173064041E+01
 2.248037910E+01 1.174631977E+01
 2.257984924E+01 1.176189041E+01
 2.267933083E+01 1.177737045E+01
 2.277879906E+01 1.179273987E+01
 2.287826920E+01 1.180801010E+01
 2.297773933E+01 1.182318020E+01
 2.307720947E+01 1.183825970E+01
 2.317667961E+01 1.185323048E+01
 2.327614975E+01 1.186812019E+01
 2.337561989E+01 1.188290024E+01
 2.347509003E+01 1.189760017E+01
 2.357456017E+01 1.191219997E+01
 2.367403030E+01 1.192671013E+01
 2.377350044E+01 1.194112968E+01
 2.387297058E+01 1.195545006E+01
 2.397244072E+01 1.196969032E+01
 2.407191086E+01 1.198383999E+01
 2.417139053E+01 1.199790955E+01
 2.427086067E+01 1.201189041E+01
 2.437033081E+01 1.202577972E+01
 2.446980095E+01 1.203958988E+01
 2.456926918E+01 1.205331993E+01
 2.466873932E+01 1.206696033E+01
 2.476820946E+01 1.208053017E+01
 2.486767960E+01 1.209401035E+01
 2.496714973E+01 1.210741043E+01
 2.506661987E+01 1.212073040E+01
 2.516609001E+01 1.213397980E+01
 2.526556015E+01 1.214713955E+01
 2.536503029E+01 1.216022968E+01
 2.546450043E+01 1.217325020E+01
 2.556398010E+01 1.218618965E+01
 2.566344070E+01 1.219904995E+01
 2.576292038E+01 1.221183968E+01
 2.586239052E+01 1.222455978E+01
 2.596186066E+01 1.223719978E+01
 2.606133080E+01 1.224977970E+01
 2.616080093E+01 1.226228046E+01
 2.626026917E+01 1.227472019E+01
 2.635973930E+01 1.228707981E+01
 2.645920944E+01 1.229936981E+01
 2.655867958E+01 1.231159973E+01
 2.665814972E+01 1.232376003E+01
 2.675761986E+01 1.233584976E+01
 2.685709953E+01 1.234788036E+01
 2.695656013E+01 1.235984039E+01
 2.705603981E+01 1.237172985E+01
 2.715550041E+01 1.238356972E+01
 2.725498009E+01 1.239533043E+01
 2.735445023E+01 1.240703964E+01
 2.745392036E+01 1.241868019E+01
 2.755339050E+01 1.243025970E+01
 2.765286064E+01 1.244178009E+01
 2.775233078E+01 1.245324039E+01
 2.785180092E+01 1.246463966E+01
 2.795126915E+01 1.247597980E+01
 2.805073929E+01 1.248725033E+01
 2.815020943E+01 1.249847984E+01
 2.824968910E+01 1.250963974E+01
 2.834914970E+01 1.252073956E+01
 2.844862938E+01 1.253178978E+01
 2.854809952E+01 1.254277992E+01
 2.864756966E+01 1.255372047E+01
 2.874703979E+01 1.256459999E+01
 2.884650993E+01 1.257542992E+01
 2.894598007E+01 1.258619022E+01
 2.904545021E+01 1.259691048E+01
 2.914492035E+01 1.260758018E+01
 2.924439049E+01 1.261818981E+01
 2.934386063E+01 1.262874985E+01
 2.944333076E+01 1.263924980E+01
 2.954280090E+01 1.264970970E+01
 2.964226913E+01 1.266011047E+01
 2.974173927E+01 1.267047024E+01
 2.984122086E+01 1.268076992E+01
 2.994067955E+01 1.269102001E+01
 3.004015923E+01 1.270123005E+01
 3.013962936E+01 1.271138000E+01
 3.023909950E+01 1.272148991E+01
 3.033856964E+01 1.273153973E+01
 3.043803978E+01 1.274155045E+01
 3.053750992E+01 1.275152016E+01
 3.063698006E+01 1.276142979E+01
 3.073645020E+01 1.277130032E+01
 3.083592033E+01 1.278112984E+01
 3.093539047E+01 1.279090023E+01
 3.103486061E+01 1.280064011E+01
 3.113433075E+01 1.281031990E+01
 3.123381042E+01 1.281997013E+01
 3.133328056E+01 1.282956982E+01
 3.143275070E+01 1.283911991E+01
 3.153222084E+01 1.284862995E+01
 3.163168907E+01 1.285809994E+01
 3.173115921E+01 1.286752987E+01
 3.183062935E+01 1.287691021E+01
 3.193009949E+01 1.288624954E+01
 3.202957153E+01 1.289554977E+01
 3.212903976E+01 1.290480042E+01
 3.222851181E+01 1.291401958E+01
 3.232798004E+01 1.292319965E+01
 3.242745972E+01 1.293233013E+01
 3.252693176E+01 1.294143009E+01
 3.262639999E+01 1.295049000E+01
 3.272586823E+01 1.295950031E+01
 3.282534027E+01 1.296848011E+01
 3.292480850E+01 1.297741985E+01
 3.302428055E+01 1.298631954E+01
 3.312374878E+01 1.299518013E+01
 3.322322083E+01 1.300399971E+01
 3.332268906E+01 1.301278973E+01
 3.342216110E+01 1.302153969E+01
 3.352162933E+01 1.303024960E+01
 3.362110138E+01 1.303892040E+01
 3.372056961E+01 1.304757023E+01
 3.382004929E+01 1.305617046E+01
 3.391952133E+01 1.306472969E+01
 3.401898956E+01 1.307326031E+01
 3.411845016E+01 1.308176041E+01
 3.421792984E+01 1.309022045E+01
 3.431740189E+01 1.309864044E+01
 3.441687012E+01 1.310702991E+01
 3.451633835E+01 1.311538982E+01
 3.461581039E+01 1.312370968E+01
 3.471527863E+01 1.313199997E+01
 3.481475067E+01 1.314025974E+01
 3.491421890E+01 1.314848042E+01
 3.501369095E+01 1.315666962E+01
 3.511315918E+01 1.316483021E+01
 3.521263885E+01 1.317294979E+01
 3.531211090E+01 1.318103981E+01
 3.541157913E+01 1.318910027E+01
 3.551103973E+01 1.319713020E+01
 3.561051941E+01 1.320512962E+01
 3.570999146E+01 1.321308994E+01
 3.580945969E+01 1.322101974E+01
 3.590893173E+01 1.322891998E+01
 3.600839996E+01 1.323680019E+01
 3.610786819E+01 1.324464035E+01
 3.620734024E+01 1.325244999E+01
 3.630680847E+01 1.326023006E+01
 3.640628052E+01 1.326797962E+01
 3.650576019E+01 1.327569962E+01
 3.660522079E+01 1.328339958E+01
 3.670470047E+01 1.329106045E+01
 3.680416107E+01 1.329868984E+01
 3.690362930E+01 1.330630016E+01
 3.700310898E+01 1.331387997E+01
 3.710258102E+01 1.332141972E+01
 3.720204926E+01 1.332894993E+01
 3.730152130E+01 1.333644009E+01
 3.740098953E+01 1.334389973E+01
 3.750046921E+01 1.335134029E+01
 3.759992981E+01 1.335875034E+01
 3.769940186E+01 1.336612988E+01
 3.779887009E+01 1.337349033E+01
 3.789834976E+01 1.338082027E+01
 3.799782181E+01 1.338811970E+01
 3.809729004E+01 1.339538956E+01
 3.819675064E+01 1.340264034E+01
 3.829623032E+01 1.340985966E+01
 3.839569855E+01 1.341705990E+01
 3.849517059E+01 1.342422962E+01
 3.859463882E+01 1.343138027E+01
 3.869411087E+01 1.343850040E+01
 3.879357910E+01 1.344559956E+01
 3.889305115E+01 1.345267010E+01
 3.899251938E+01 1.345971012E+01
 3.909199905E+01 1.346673012E+01
 3.919147110E+01 1.347373009E+01
 3.929093933E+01 1.348069954E+01
 3.939039993E+01 1.348764992E+01
 3.948987961E+01 1.349456978E+01
 3.958935165E+01 1.350146961E+01
 3.968880844E+01 1.350833988E+01
 3.978828049E+01 1.351519966E+01
 3.988776016E+01 1.352202988E+01
 3.998722839E+01 1.352882957E+01
 4.008670044E+01 1.353561020E+01
 4.018616867E+01 1.354236984E+01
 4.028564072E+01 1.354909992E+01
 4.038510895E+01 1.355582047E+01
 4.048458099E+01 1.356250954E+01
 4.058406067E+01 1.356917000E+01
 4.068352127E+01 1.357581997E+01
 4.078298950E+01 1.358244991E+01
 4.088246155E+01 1.358905029E+01
 4.098194122E+01 1.359562969E+01
 4.108140945E+01 1.360217953E+01
 4.118088150E+01 1.360871983E+01
 4.128034973E+01 1.361524010E+01
 4.137981033E+01 1.362172985E+01
 4.147929001E+01 1.362819958E+01
 4.157875824E+01 1.363465023E+01
 4.167823029E+01 1.364107990E+01
 4.177769852E+01 1.364750004E+01
 4.187717056E+01 1.365388012E+01
 4.197665024E+01 1.366024971E+01
 4.207611084E+01 1.366660023E+01
 4.217557907E+01 1.367292976E+01
 4.227505112E+01 1.367924023E+01
 4.237453079E+01 1.368552971E+01
 4.247399902E+01 1.369178963E+01
 4.257345963E+01 1.369804955E+01
 4.267293930E+01 1.370427036E+01
 4.277239990E+01 1.371047974E+01
 4.287187958E+01 1.371667004E+01
 4.297135162E+01 1.372284031E+01
 4.307081985E+01 1.372898960E+01
 4.317029190E+01 1.373511982E+01
 4.326976013E+01 1.374123955E+01
 4.336922836E+01 1.374732971E+01
 4.346870041E+01 1.375341034E+01
 4.356818008E+01 1.375946999E+01
 4.366764069E+01 1.376550007E+01
 4.376712036E+01 1.377151966E+01
 4.386658859E+01 1.377752018E+01
 4.396606064E+01 1.378351021E+01
 4.406552887E+01 1.378946972E+01
 4.416500092E+01 1.379541969E+01
 4.426446915E+01 1.380134964E+01
 4.436394119E+01 1.380725956E+01
 4.446342087E+01 1.381315994E+01
 4.456288910E+01 1.381902981E+01
 4.466234970E+01 1.382489014E+01
 4.476182175E+01 1.383073044E+01
 4.486128998E+01 1.383656025E+01
 4.496076965E+01 1.384237003E+01
 4.506023026E+01 1.384815979E+01
 4.515970993E+01 1.385393047E+01
 4.525917816E+01 1.385968018E+01
 4.535865021E+01 1.386542034E+01
 4.545811844E+01 1.387115002E+01
 4.555759048E+01 1.387685013E+01
 4.565705872E+01 1.388253975E+01
 4.575653076E+01 1.388821983E+01
 4.585599899E+01 1.389387035E+01
 4.595547104E+01 1.389951038E+01
 4.605493927E+01 1.390513992E+01
 4.615441132E+01 1.391073990E+01
 4.625387955E+01 1.391633034E+01
 4.635335922E+01 1.392191029E+01
 4.645283127E+01 1.392747021E+01
 4.655229950E+01 1.393301964E+01
 4.665177155E+01 1.393855000E+01
 4.675123978E+01 1.394406033E+01
 4.685071182E+01 1.394956017E+01
 4.695018005E+01 1.395503998E+01
 4.704964828E+01 1.396051025E+01
 4.714912033E+01 1.396595955E+01
 4.724860001E+01 1.397140026E+01
 4.734806061E+01 1.397682953E+01
 4.744752884E+01 1.398223972E+01
 4.754700089E+01 1.398762989E+01
 4.764646912E+01 1.399300957E+01
 4.774594116E+01 1.399837017E+01
 4.784540939E+01 1.400372028E+01
 4.794488907E+01 1.400905991E+01
 4.804436111E+01 1.401438046E+01
 4.814382935E+01 1.401968002E+01
 4.824330139E+01 1.402497005E+01
 4.834276962E+01 1.403024960E+01
 4.844224167E+01 1.403551006E+01
 4.854170990E+01 1.404076004E+01
 4.864117813E+01 1.404599953E+01
 4.874065018E+01 1.405121994E+01
 4.884011841E+01 1.405642986E+01
 4.893959045E+01 1.406161976E+01
 4.903907013E+01 1.406680012E+01
 4.913853836E+01 1.407196999E+01
 4.923801041E+01 1.407711983E+01
 4.933747101E+01 1.408226013E+01
 4.943693924E+01 1.408738995E+01
 4.953641891E+01 1.409249973E+01
 4.963589096E+01 1.409759998E+01
 4.973535919E+01 1.410268021E+01
 4.983483124E+01 1.410776043E+01
 4.993429947E+01 1.411281967E+01
 5.003377151E+01 1.411785984E+01
 5.013323975E+01 1.412290001E+01
 5.023271179E+01 1.412792015E+01
 5.033218002E+01 1.413292980E+01
 5.043164825E+01 1.413792038E+01
 5.053113174E+01 1.414291000E+01
 5.063058853E+01 1.414787006E+01
 5.073006821E+01 1.415283012E+01
 5.082954025E+01 1.415777969E+01
 5.092900848E+01 1.416271019E+01
 5.102848053E+01 1.416763020E+01
 5.112794876E+01 1.417253971E+01
 5.122742844E+01 1.417743969E+01
 5.132688904E+01 1.418231964E+01
 5.142636108E+01 1.418719006E+01
 5.152582932E+01 1.419204998E+01
 5.162530899E+01 1.419690037E+01
 5.172476959E+01 1.420172977E+01
 5.182424927E+01 1.420656013E+01
 5.192370987E+01 1.421137047E+01
 5.202318954E+01 1.421617031E+01
 5.212265015E+01 1.422095013E+01
 5.222212982E+01 1.422572994E+01
 5.232160187E+01 1.423048973E+01
 5.242107010E+01 1.423525047E+01
 5.252053833E+01 1.423999023E+01
 5.262001038E+01 1.424472046E+01
 5.271949005E+01 1.424944019E+01
 5.281895065E+01 1.425415039E+01
 5.291841888E+01 1.425883961E+01
 5.301789093E+01 1.426352978E+01
 5.311737061E+01 1.426819992E+01
 5.321683884E+01 1.427285957E+01
 5.331629944E+01 1.427750969E+01
 5.341577148E+01 1.428215981E+01
 5.351525116E+01 1.428678989E+01
 5.361471939E+01 1.429139996E+01
 5.371419144E+01 1.429601002E+01
 5.381365967E+01 1.430060959E+01
 5.391312027E+01 1.430519009E+01
 5.401259995E+01 1.430976963E+01
 5.411206818E+01 1.431433964E+01
 5.421154022E+01 1.431888962E+01
 5.431100082E+01 1.432343006E+01
 5.441048813E+01 1.432796955E+01
 5.450994873E+01 1.433248997E+01
 5.460942078E+01 1.433699989E+01
 5.470888901E+01 1.434150028E+01
 5.480836105E+01 1.434599972E+01
 5.490784073E+01 1.435048008E+01
 5.500730896E+01 1.435494995E+01
 5.510678101E+01 1.435941029E+01
 5.520624924E+01 1.436386013E+01
 5.530572128E+01 1.436830044E+01
 5.540518188E+01 1.437273979E+01
 5.550466919E+01 1.437716007E+01
 5.560412979E+01 1.438156986E+01
 5.570360947E+01 1.438597012E+01
 5.580307007E+01 1.439035988E+01
 5.590253830E+01 1.439474010E+01
 5.600201035E+01 1.439912033E+01
 5.610147858E+01 1.440347958E+01
 5.620095825E+01 1.440783024E+01
 5.630043030E+01 1.441217041E+01
 5.639989853E+01 1.441650963E+01
 5.649937057E+01 1.442082977E+01
 5.659883881E+01 1.442514992E+01
 5.669831085E+01 1.442945004E+01
 5.679777908E+01 1.443375015E+01
 5.689725113E+01 1.443803024E+01
 5.699671936E+01 1.444231033E+01
 5.709619904E+01 1.444657993E+01
 5.719565964E+01 1.445084000E+01
 5.729513931E+01 1.445508003E+01
 5.739459991E+01 1.445932007E+01
 5.749407959E+01 1.446356010E+01
 5.759355164E+01 1.446778011E+01
 5.769301987E+01 1.447198963E+01
 5.779248047E+01 1.447620010E+01
 5.789196014E+01 1.448038960E+01
 5.799142838E+01 1.448458004E+01
 5.809090042E+01 1.448875999E+01
 5.819036865E+01 1.449291992E+01
 5.828984070E+01 1.449709034E+01
 5.838930893E+01 1.450123978E+01
 5.848878098E+01 1.450537968E+01
 5.858824921E+01 1.450951004E+01
 5.868772888E+01 1.451364040E+01
 5.878720093E+01 1.451776028E+01
 5.888666153E+01 1.452186012E+01
 5.898614120E+01 1.452595997E+01
 5.908560944E+01 1.453005981E+01
 5.918508148E+01 1.453413963E+01
 5.928454971E+01 1.453820992E+01
 5.938402176E+01 1.454228020E+01
 5.948348999E+01 1.454633999E+01
 5.958295822E+01 1.455039024E+01
 5.968243027E+01 1.455443001E+01
 5.978190994E+01 1.455846024E+01
 5.988135910E+01 1.456247997E+01
 5.998083878E+01 1.456649971E+01
 6.008031082E+01 1.457050991E+01
 6.017977905E+01 1.457450962E+01
 6.027925873E+01 1.457849979E+01
 6.037873077E+01 1.458248043E+01
 6.047819901E+01 1.458646011E+01
 6.057765961E+01 1.459041977E+01
 6.067713928E+01 1.459438038E+01
 6.077661133E+01 1.459834003E+01
 6.087607956E+01 1.460227966E+01
 6.097555161E+01 1.460622025E+01
 6.107501984E+01 1.461015034E+01
 6.117449188E+01 1.461406994E+01
 6.127396011E+01 1.461798000E+01
 6.137342834E+01 1.462187958E+01
 6.147290039E+01 1.462578011E+01
 6.157238007E+01 1.462967014E+01
 6.167184067E+01 1.463354969E+01
 6.177133179E+01 1.463743019E+01
 6.187078094E+01 1.464128971E+01
 6.197026062E+01 1.464515018E+01
 6.206972885E+01 1.464900970E+01
 6.216920090E+01 1.465285015E+01
 6.226866913E+01 1.465668964E+01
 6.236814117E+01 1.466051960E+01
 6.246760941E+01 1.466434002E+01
 6.256708145E+01 1.466814995E+01
 6.266656113E+01 1.467195988E+01
 6.276602173E+01 1.467576027E+01
 6.286548996E+01 1.467955017E+01
 6.296495819E+01 1.468334007E+01
 6.306444168E+01 1.468710995E+01
 6.316390991E+01 1.469089031E+01
 6.326337814E+01 1.469464970E+01
 6.336283875E+01 1.469841003E+01
 6.346231842E+01 1.470215988E+01
 6.356179047E+01 1.470590019E+01
 6.366125870E+01 1.470963955E+01
 6.376073074E+01 1.471337032E+01
 6.386019897E+01 1.471708965E+01
 6.395967102E+01 1.472080040E+01
 6.405914307E+01 1.472451019E+01
 6.415862274E+01 1.472821045E+01
 6.425808716E+01 1.473190022E+01
 6.435755920E+01 1.473558998E+01
 6.445702362E+01 1.473927021E+01
 6.455650330E+01 1.474293995E+01
 6.465596771E+01 1.474660969E+01
 6.475543976E+01 1.475026989E+01
 6.485491943E+01 1.475391960E+01
 6.495437622E+01 1.475757027E+01
 6.505386353E+01 1.476121044E+01
 6.515332031E+01 1.476484013E+01
 6.525279236E+01 1.476846981E+01
 6.535225677E+01 1.477208996E+01
 6.545173645E+01 1.477569962E+01
 6.555120087E+01 1.477931023E+01
 6.565067291E+01 1.478289986E+01
 6.575013733E+01 1.478649998E+01
 6.584961700E+01 1.479008961E+01
 6.594908905E+01 1.479366970E+01
 6.604855347E+01 1.479724026E+01
 6.614801788E+01 1.480080986E+01
 6.624749756E+01 1.480436993E+01
 6.634696960E+01 1.480792046E+01
 6.644644165E+01 1.481147003E+01
 6.654591370E+01 1.481501007E+01
 6.664537811E+01 1.481855011E+01
 6.674485779E+01 1.482207966E+01
 6.684432220E+01 1.482559967E+01
 6.694378662E+01 1.482911968E+01
 6.704326630E+01 1.483263016E+01
 6.714273071E+01 1.483613968E+01
 6.724220276E+01 1.483963966E+01
 6.734166718E+01 1.484313011E+01
 6.744114685E+01 1.484661007E+01
 6.754061890E+01 1.485009003E+01
 6.764009857E+01 1.485356998E+01
 6.773956299E+01 1.485704041E+01
 6.783904266E+01 1.486050034E+01
 6.793849945E+01 1.486396027E+01
 6.803797913E+01 1.486740971E+01
 6.813744354E+01 1.487084961E+01
 6.823690796E+01 1.487429047E+01
 6.833638000E+01 1.487771988E+01
 6.843585205E+01 1.488115025E+01
 6.853531647E+01 1.488457012E+01
 6.863480377E+01 1.488798046E+01
 6.873428345E+01 1.489138985E+01
 6.883373260E+01 1.489480019E+01
 6.893321228E+01 1.489818954E+01
 6.903267670E+01 1.490157986E+01
 6.913215637E+01 1.490497017E+01
 6.923162079E+01 1.490834999E+01
 6.933109283E+01 1.491172981E+01
 6.943055725E+01 1.491510010E+01
 6.953002930E+01 1.491845989E+01
 6.962950134E+01 1.492181969E+01
 6.972897339E+01 1.492516994E+01
 6.982845306E+01 1.492852020E+01
 6.992790985E+01 1.493185997E+01
 7.002738953E+01 1.493519020E+01
 7.012686157E+01 1.493852043E+01
 7.022633362E+01 1.494184971E+01
 7.032579803E+01 1.494515991E+01
 7.042527771E+01 1.494847965E+01
 7.052472687E+01 1.495178986E+01
 7.062420654E+01 1.495508957E+01
 7.072367859E+01 1.495839024E+01
 7.082315063E+01 1.496168041E+01
 7.092262268E+01 1.496496010E+01
 7.102208710E+01 1.496823978E+01
 7.112155914E+01 1.497152042E+01
 7.122103119E+01 1.497478962E+01
 7.132050323E+01 1.497805023E+01
 7.141998291E+01 1.498130989E+01
 7.151944733E+01 1.498456955E+01
 7.161891174E+01 1.498781013E+01
 7.171839142E+01 1.499106026E+01
 7.181786346E+01 1.499429989E+01
 7.191734314E+01 1.499752998E+01
 7.201679993E+01 1.500074959E+01
 7.211627197E+01 1.500397968E+01
 7.221573639E+01 1.500720024E+01
 7.231520844E+01 1.501041031E+01
 7.241468048E+01 1.501362038E+01
 7.251415253E+01 1.501681995E+01
 7.261361694E+01 1.502001953E+01
 7.271309662E+01 1.502320957E+01
 7.281256866E+01 1.502639008E+01
 7.291204071E+01 1.502958012E+01
 7.301151276E+01 1.503275013E+01
 7.311097717E+01 1.503592968E+01
 7.321044922E+01 1.503909969E+01
 7.330992126E+01 1.504226017E+01
 7.340939331E+01 1.504541969E+01
 7.350885773E+01 1.504856968E+01
 7.360832977E+01 1.505171013E+01
 7.370780182E+01 1.505486012E+01
 7.380726624E+01 1.505799007E+01
 7.390675354E+01 1.506112957E+01
 7.400621796E+01 1.506425953E+01
 7.410569000E+01 1.506737995E+01
 7.420516205E+01 1.507050037E+01
 7.430462646E+01 1.507361031E+01
 7.440409851E+01 1.507672024E+01
 7.450357056E+01 1.507981968E+01
 7.460302734E+01 1.508292007E+01
 7.470250702E+01 1.508602047E+01
 7.480197906E+01 1.508911037E+01
 7.490144348E+01 1.509218979E+01
 7.500093079E+01 1.509527016E+01
 7.510040283E+01 1.509834957E+01
 7.519986725E+01 1.510140991E+01
 7.529933167E+01 1.510447979E+01
 7.539880371E+01 1.510754013E+01
 7.549828339E+01 1.511060047E+01
 7.559774780E+01 1.511365032E+01
 7.569721985E+01 1.511670017E+01
 7.579669189E+01 1.511975002E+01
 7.589615631E+01 1.512277985E+01
 7.599564362E+01 1.512582016E+01
 7.609510803E+01 1.512884998E+01
 7.619457245E+01 1.513187027E+01
 7.629403687E+01 1.513488960E+01
 7.639350891E+01 1.513790989E+01
 7.649298096E+01 1.514091969E+01
 7.659245300E+01 1.514393044E+01
 7.669193268E+01 1.514692974E+01
 7.679139709E+01 1.514993000E+01
 7.689086914E+01 1.515291977E+01
 7.699034119E+01 1.515590954E+01
 7.708981323E+01 1.515890026E+01
 7.718929291E+01 1.516187954E+01
 7.728874969E+01 1.516485023E+01
 7.738820648E+01 1.516783047E+01
 7.748769379E+01 1.517078972E+01
 7.758715820E+01 1.517376041E+01
 7.768663025E+01 1.517671967E+01
 7.778610229E+01 1.517967033E+01
 7.788556671E+01 1.518262005E+01
 7.798504639E+01 1.518556976E+01
 7.808451843E+01 1.518850994E+01
 7.818399048E+01 1.519145012E+01
 7.828344727E+01 1.519437981E+01
 7.838292694E+01 1.519731045E+01
 7.848239136E+01 1.520022964E+01
 7.858187103E+01 1.520314980E+01
 7.868134308E+01 1.520606995E+01
 7.878080750E+01 1.520897961E+01
 7.888027191E+01 1.521189022E+01
 7.897975159E+01 1.521479988E+01
 7.907922363E+01 1.521770000E+01
 7.917870331E+01 1.522058964E+01
 7.927816010E+01 1.522348022E+01
 7.937761688E+01 1.522636986E+01
 7.947711182E+01 1.522924995E+01
 7.957656860E+01 1.523213005E+01
 7.967604828E+01 1.523501015E+01
 7.977551270E+01 1.523787975E+01
 7.987499237E+01 1.524075031E+01
 7.997445679E+01 1.524361038E+01
 8.007392883E+01 1.524647045E+01
 8.017339325E+01 1.524932957E+01
 8.027287292E+01 1.525218010E+01
 8.037233734E+01 1.525502014E+01
 8.047180939E+01 1.525786972E+01
 8.057128906E+01 1.526070976E+01
 8.067075348E+01 1.526354027E+01
 8.077023315E+01 1.526636982E+01
 8.086969757E+01 1.526920033E+01
 8.096916962E+01 1.527202034E+01
 8.106864166E+01 1.527484989E+01
 8.116811371E+01 1.527766037E+01
 8.126759338E+01 1.528046989E+01
 8.136704254E+01 1.528328037E+01
 8.146650696E+01 1.528608990E+01
 8.156598663E+01 1.528888988E+01
 8.166544342E+01 1.529168034E+01
 8.176492310E+01 1.529446983E+01
 8.186440277E+01 1.529726982E+01
 8.196386719E+01 1.530004978E+01
 8.206334686E+01 1.530282974E+01
 8.216281891E+01 1.530560970E+01
 8.226229095E+01 1.530838013E+01
 8.236176300E+01 1.531114960E+01
 8.246122742E+01 1.531392002E+01
 8.256069946E+01 1.531667995E+01
 8.266017151E+01 1.531943989E+01
 8.275962067E+01 1.532219982E+01
 8.285912323E+01 1.532495022E+01
 8.295858002E+01 1.532769966E+01
 8.305805206E+01 1.533043957E+01
 8.315751648E+01 1.533318043E+01
 8.325700378E+01 1.533592033E+01
 8.335646057E+01 1.533864975E+01
 8.345593262E+01 1.534138012E+01
 8.355539703E+01 1.534410954E+01
 8.365487671E+01 1.534683037E+01
 8.375434875E+01 1.534955025E+01
 8.385382080E+01 1.535225964E+01
 8.395329285E+01 1.535498047E+01
 8.405275726E+01 1.535768032E+01
 8.415222931E+01 1.536038971E+01
 8.425170135E+01 1.536308956E+01
 8.435117340E+01 1.536579037E+01
 8.445063782E+01 1.536847973E+01
 8.455010986E+01 1.537117004E+01
 8.464958191E+01 1.537386036E+01
 8.474904633E+01 1.537654018E+01
 8.484853363E+01 1.537922001E+01
 8.494799805E+01 1.538189983E+01
 8.504747009E+01 1.538457012E+01
 8.514692688E+01 1.538724041E+01
 8.524642181E+01 1.538990974E+01
 8.534587097E+01 1.539256954E+01
 8.544534302E+01 1.539523029E+01
 8.554480743E+01 1.539787960E+01
 8.564428711E+01 1.540054035E+01
 8.574375916E+01 1.540318012E+01
 8.584323120E+01 1.540583038E+01
 8.594270325E+01 1.540847015E+01
 8.604218292E+01 1.541110992E+01
 8.614164734E+01 1.541374969E+01
 8.624109650E+01 1.541637993E+01
 8.634058380E+01 1.541901016E+01
 8.644006348E+01 1.542162991E+01
 8.653952789E+01 1.542426014E+01
 8.663899994E+01 1.542687988E+01
 8.673845673E+01 1.542949009E+01
 8.683792877E+01 1.543210030E+01
 8.693740845E+01 1.543470955E+01
 8.703688049E+01 1.543731976E+01
 8.713635254E+01 1.543992043E+01
 8.723581696E+01 1.544252014E+01
 8.733528137E+01 1.544511032E+01
 8.743476105E+01 1.544771004E+01
 8.753423309E+01 1.545030022E+01
 8.763371277E+01 1.545287991E+01
 8.773317719E+01 1.545545959E+01
 8.783264923E+01 1.545804977E+01
 8.793212128E+01 1.546061993E+01
 8.803159332E+01 1.546319008E+01
 8.813105774E+01 1.546576023E+01
 8.823052979E+01 1.546833038E+01
 8.833000183E+01 1.547089958E+01
 8.842946625E+01 1.547346020E+01
 8.852893829E+01 1.547601032E+01
 8.862841034E+01 1.547856998E+01
 8.872788239E+01 1.548112011E+01
 8.882734680E+01 1.548365974E+01
 8.892682648E+01 1.548620987E+01
 8.902629089E+01 1.548875046E+01
 8.912577820E+01 1.549129009E+01