variables="x","cf"
zone, t="CFL3D"
 -0.322832048E+00  0.000000000E+00
 -0.312661707E+00  0.000000000E+00
 -0.302808702E+00  0.000000000E+00
 -0.293262988E+00  0.000000000E+00
 -0.284014881E+00  0.000000000E+00
 -0.275054991E+00  0.000000000E+00
 -0.266374260E+00  0.000000000E+00
 -0.257963866E+00  0.000000000E+00
 -0.249815241E+00  0.000000000E+00
 -0.241920143E+00  0.000000000E+00
 -0.234270573E+00  0.000000000E+00
 -0.226858735E+00  0.000000000E+00
 -0.219677135E+00  0.000000000E+00
 -0.212718472E+00  0.000000000E+00
 -0.205975682E+00  0.000000000E+00
 -0.199441925E+00  0.000000000E+00
 -0.193110570E+00  0.000000000E+00
 -0.186975181E+00  0.000000000E+00
 -0.181029558E+00  0.000000000E+00
 -0.175267652E+00  0.000000000E+00
 -0.169683605E+00  0.000000000E+00
 -0.164271772E+00  0.000000000E+00
 -0.159026638E+00  0.000000000E+00
 -0.153942898E+00  0.000000000E+00
 -0.149015382E+00  0.000000000E+00
 -0.144239098E+00  0.000000000E+00
 -0.139609203E+00  0.000000000E+00
 -0.135120973E+00  0.000000000E+00
 -0.130769879E+00  0.000000000E+00
 -0.126551494E+00  0.000000000E+00
 -0.122461535E+00  0.000000000E+00
 -0.118495859E+00  0.000000000E+00
 -0.114650436E+00  0.000000000E+00
 -0.110921368E+00  0.000000000E+00
 -0.107304864E+00  0.000000000E+00
 -0.103797257E+00  0.000000000E+00
 -0.100394994E+00  0.000000000E+00
 -0.970946103E-01  0.000000000E+00
 -0.938927680E-01  0.000000000E+00
 -0.907862112E-01  0.000000000E+00
 -0.877717882E-01  0.000000000E+00
 -0.848464370E-01  0.000000000E+00
 -0.820071921E-01  0.000000000E+00
 -0.792511776E-01  0.000000000E+00
 -0.765755847E-01  0.000000000E+00
 -0.739777014E-01  0.000000000E+00
 -0.714548975E-01  0.000000000E+00
 -0.690046102E-01  0.000000000E+00
 -0.666243508E-01  0.000000000E+00
 -0.643117055E-01  0.000000000E+00
 -0.620643273E-01  0.000000000E+00
 -0.598799363E-01  0.000000000E+00
 -0.577563122E-01  0.000000000E+00
 -0.556912981E-01  0.000000000E+00
 -0.536828078E-01  0.000000000E+00
 -0.517287925E-01  0.000000000E+00
 -0.498272777E-01  0.000000000E+00
 -0.479763262E-01  0.000000000E+00
 -0.461740643E-01  0.000000000E+00
 -0.444186628E-01  0.000000000E+00
 -0.427083410E-01  0.000000000E+00
 -0.410413593E-01  0.000000000E+00
 -0.394160263E-01  0.000000000E+00
 -0.378306992E-01  0.000000000E+00
 -0.362837613E-01  0.000000000E+00
 -0.347736441E-01  0.000000000E+00
 -0.332988203E-01  0.000000000E+00
 -0.318577886E-01  0.000000000E+00
 -0.304490849E-01  0.000000000E+00
 -0.290712845E-01  0.000000000E+00
 -0.277229883E-01  0.000000000E+00
 -0.264028255E-01  0.000000000E+00
 -0.251094569E-01  0.000000000E+00
 -0.238415692E-01  0.000000000E+00
 -0.225978792E-01  0.000000000E+00
 -0.213771220E-01  0.000000000E+00
 -0.201780591E-01  0.000000000E+00
 -0.189994741E-01  0.000000000E+00
 -0.178401694E-01  0.000000000E+00
 -0.166989714E-01  0.000000000E+00
 -0.155747188E-01  0.000000000E+00
 -0.144662727E-01  0.000000000E+00
 -0.133725079E-01  0.000000000E+00
 -0.122923143E-01  0.000000000E+00
 -0.112245949E-01  0.000000000E+00
 -0.101682665E-01  0.000000000E+00
 -0.912225805E-02  0.000000000E+00
 -0.808550697E-02  0.000000000E+00
 -0.705696130E-02  0.000000000E+00
 -0.603557704E-02  0.000000000E+00
 -0.502031855E-02  0.000000000E+00
 -0.401015440E-02  0.000000000E+00
 -0.300406036E-02  0.000000000E+00
 -0.200101477E-02  0.000000000E+00
 -0.100000005E-02  0.000000000E+00
  0.000000000E+00  0.119266193E-01
  0.100000005E-02  0.153291794E-01
  0.200196845E-02  0.624860171E-02
  0.300592440E-02  0.551192882E-02
  0.401188759E-02  0.508085918E-02
  0.501987757E-02  0.475673238E-02
  0.602991367E-02  0.450436026E-02
  0.704201637E-02  0.430308003E-02
  0.805620477E-02  0.414374936E-02
  0.907250028E-02  0.402006786E-02
  0.100909220E-01  0.392846996E-02
  0.111114914E-01  0.386701548E-02
  0.121342279E-01  0.383478659E-02
  0.131591521E-01  0.383088342E-02
  0.141862864E-01  0.385333598E-02
  0.152156502E-01  0.389820198E-02
  0.162472650E-01  0.395938288E-02
  0.172811542E-01  0.402936479E-02
  0.183173344E-01  0.410058722E-02
  0.193558335E-01  0.416679354E-02
  0.203966685E-01  0.422382960E-02
  0.214398615E-01  0.426972471E-02
  0.224854369E-01  0.430426048E-02
  0.235334169E-01  0.432835054E-02
  0.245838221E-01  0.434347102E-02
  0.256366767E-01  0.435124803E-02
  0.266920011E-01  0.435321731E-02
  0.277498215E-01  0.435071206E-02
  0.288101584E-01  0.434483262E-02
  0.298730358E-01  0.433646794E-02
  0.309384800E-01  0.432632258E-02
  0.320065096E-01  0.431494461E-02
  0.330771506E-01  0.430274801E-02
  0.341504291E-01  0.429004431E-02
  0.352263674E-01  0.427706167E-02
  0.363049880E-01  0.426396774E-02
  0.373863205E-01  0.425088219E-02
  0.384703875E-01  0.423788885E-02
  0.395572111E-01  0.422504498E-02
  0.406468175E-01  0.421238691E-02
  0.417392366E-01  0.419993652E-02
  0.428344868E-01  0.418770406E-02
  0.439326018E-01  0.417569513E-02
  0.450336002E-01  0.416390877E-02
  0.461375155E-01  0.415234221E-02
  0.472443663E-01  0.414098753E-02
  0.483541861E-01  0.412983634E-02
  0.494669974E-01  0.411887839E-02
  0.505828299E-01  0.410810485E-02
  0.517017096E-01  0.409750640E-02
  0.528236665E-01  0.408707326E-02
  0.539487228E-01  0.407679798E-02
  0.550769158E-01  0.406667171E-02
  0.562082641E-01  0.405668840E-02
  0.573428012E-01  0.404684106E-02
  0.584805533E-01  0.403712410E-02
  0.596215539E-01  0.402753148E-02
  0.607658289E-01  0.401805900E-02
  0.619134083E-01  0.400870247E-02
  0.630643219E-01  0.399945816E-02
  0.642186031E-01  0.399032235E-02
  0.653762743E-01  0.398129178E-02
  0.665373728E-01  0.397236459E-02
  0.677019283E-01  0.396353705E-02
  0.688699782E-01  0.395480683E-02
  0.700415373E-01  0.394617207E-02
  0.712166503E-01  0.393763045E-02
  0.723953471E-01  0.392918056E-02
  0.735776573E-01  0.392081961E-02
  0.747636184E-01  0.391254667E-02
  0.759532601E-01  0.390435942E-02
  0.771466121E-01  0.389625691E-02
  0.783437192E-01  0.388823752E-02
  0.795445964E-01  0.388029916E-02
  0.807492957E-01  0.387244066E-02
  0.819578469E-01  0.386466086E-02
  0.831702799E-01  0.385695789E-02
  0.843866318E-01  0.384933082E-02
  0.856069401E-01  0.384177780E-02
  0.868312418E-01  0.383429788E-02
  0.880595669E-01  0.382689014E-02
  0.892919526E-01  0.381955272E-02
  0.905284435E-01  0.381228467E-02
  0.917690769E-01  0.380508462E-02
  0.930138826E-01  0.379795162E-02
  0.942628980E-01  0.379088428E-02
  0.955161676E-01  0.378388190E-02
  0.967737213E-01  0.377694261E-02
  0.980356112E-01  0.377006596E-02
  0.993018672E-01  0.376325077E-02
  0.100572534E+00  0.375649589E-02
  0.101847649E+00  0.374980038E-02
  0.103127249E+00  0.374316308E-02
  0.104411386E+00  0.373658282E-02
  0.105700091E+00  0.373005914E-02
  0.106993407E+00  0.372359110E-02
  0.108291380E+00  0.371717708E-02
  0.109594055E+00  0.371081661E-02
  0.110901475E+00  0.370450853E-02
  0.112213671E+00  0.369825237E-02
  0.113530703E+00  0.369204720E-02
  0.114852607E+00  0.368589163E-02
  0.116179429E+00  0.367978518E-02
  0.117511220E+00  0.367372693E-02
  0.118848018E+00  0.366771640E-02
  0.120189868E+00  0.366175245E-02
  0.121536829E+00  0.365583459E-02
  0.122888938E+00  0.364996144E-02
  0.124246247E+00  0.364413275E-02
  0.125608802E+00  0.363834808E-02
  0.126976654E+00  0.363260624E-02
  0.128349841E+00  0.362690655E-02
  0.129728436E+00  0.362124830E-02
  0.131112471E+00  0.361563079E-02
  0.132502005E+00  0.361005380E-02
  0.133897096E+00  0.360451615E-02
  0.135297775E+00  0.359901763E-02
  0.136704117E+00  0.359355705E-02
  0.138116151E+00  0.358813396E-02
  0.139533952E+00  0.358274812E-02
  0.140957579E+00  0.357739860E-02
  0.142387062E+00  0.357208517E-02
  0.143822476E+00  0.356680667E-02
  0.145263880E+00  0.356156286E-02
  0.146711320E+00  0.355635327E-02
  0.148164853E+00  0.355117745E-02
  0.149624541E+00  0.354603468E-02
  0.151090443E+00  0.354092428E-02
  0.152562618E+00  0.353584578E-02
  0.154041126E+00  0.353079895E-02
  0.155526027E+00  0.352578331E-02
  0.157017380E+00  0.352079840E-02
  0.158515260E+00  0.351584330E-02
  0.160019726E+00  0.351091754E-02
  0.161530837E+00  0.350602088E-02
  0.163048655E+00  0.350115285E-02
  0.164573237E+00  0.349631323E-02
  0.166104674E+00  0.349150156E-02
  0.167643011E+00  0.348671689E-02
  0.169188336E+00  0.348195899E-02
  0.170740694E+00  0.347722764E-02
  0.172300175E+00  0.347252260E-02
  0.173866838E+00  0.346784340E-02
  0.175440744E+00  0.346318935E-02
  0.177021995E+00  0.345855998E-02
  0.178610638E+00  0.345395482E-02
  0.180206746E+00  0.344937411E-02
  0.181810409E+00  0.344481715E-02
  0.183421686E+00  0.344028370E-02
  0.185040668E+00  0.343577308E-02
  0.186667427E+00  0.343128457E-02
  0.188302055E+00  0.342681818E-02
  0.189944595E+00  0.342237344E-02
  0.191595152E+00  0.341795059E-02
  0.193253815E+00  0.341354916E-02
  0.194920644E+00  0.340916845E-02
  0.196595743E+00  0.340480823E-02
  0.198279172E+00  0.340046827E-02
  0.199971035E+00  0.339614856E-02
  0.201671422E+00  0.339184864E-02
  0.203380406E+00  0.338756805E-02
  0.205098078E+00  0.338330632E-02
  0.206824541E+00  0.337906345E-02
  0.208559871E+00  0.337483897E-02
  0.210304171E+00  0.337063312E-02
  0.212057531E+00  0.336644496E-02
  0.213820040E+00  0.336227450E-02
  0.215591788E+00  0.335812126E-02
  0.217372894E+00  0.335398503E-02
  0.219163433E+00  0.334986602E-02
  0.220963523E+00  0.334576378E-02
  0.222773254E+00  0.334167760E-02
  0.224592730E+00  0.333760749E-02
  0.226422057E+00  0.333355274E-02
  0.228261337E+00  0.332951383E-02
  0.230110675E+00  0.332549051E-02
  0.231970191E+00  0.332148233E-02
  0.233839974E+00  0.331748906E-02
  0.235720143E+00  0.331350998E-02
  0.237610832E+00  0.330954511E-02
  0.239512116E+00  0.330559467E-02
  0.241424143E+00  0.330165820E-02
  0.243347019E+00  0.329773570E-02
  0.245280847E+00  0.329382648E-02
  0.247225776E+00  0.328993029E-02
  0.249181896E+00  0.328604691E-02
  0.251149356E+00  0.328217680E-02
  0.253128290E+00  0.327831949E-02
  0.255118787E+00  0.327447429E-02
  0.257120997E+00  0.327064143E-02
  0.259135067E+00  0.326682022E-02
  0.261161119E+00  0.326301111E-02
  0.263199270E+00  0.325921341E-02
  0.265249670E+00  0.325542758E-02
  0.267312437E+00  0.325165270E-02
  0.269387752E+00  0.324788876E-02
  0.271475732E+00  0.324413553E-02
  0.273576528E+00  0.324039301E-02
  0.275690287E+00  0.323666097E-02
  0.277817160E+00  0.323293940E-02
  0.279957294E+00  0.322922785E-02
  0.282110840E+00  0.322552607E-02
  0.284277946E+00  0.322183361E-02
  0.286458790E+00  0.321815116E-02
  0.288653523E+00  0.321447803E-02
  0.290862322E+00  0.321081420E-02
  0.293085307E+00  0.320715923E-02
  0.295322686E+00  0.320351310E-02
  0.297574639E+00  0.319987535E-02
  0.299841315E+00  0.319624646E-02
  0.302122891E+00  0.319262594E-02
  0.304419547E+00  0.318901381E-02
  0.306731462E+00  0.318540935E-02
  0.309058845E+00  0.318181259E-02
  0.311401844E+00  0.317822373E-02
  0.313760698E+00  0.317464257E-02
  0.316135526E+00  0.317106885E-02
  0.318526596E+00  0.316750212E-02
  0.320934087E+00  0.316394260E-02
  0.323358178E+00  0.316038961E-02
  0.325799078E+00  0.315684360E-02
  0.328257024E+00  0.315330434E-02
  0.330732197E+00  0.314977160E-02
  0.333224833E+00  0.314624491E-02
  0.335735142E+00  0.314272451E-02
  0.338263363E+00  0.313920970E-02
  0.340809703E+00  0.313570118E-02
  0.343374401E+00  0.313219824E-02
  0.345957696E+00  0.312870112E-02
  0.348559797E+00  0.312520913E-02
  0.351181000E+00  0.312172226E-02
  0.353821486E+00  0.311824051E-02
  0.356481552E+00  0.311476341E-02
  0.359161437E+00  0.311129098E-02
  0.361861408E+00  0.310782297E-02
  0.364581734E+00  0.310435961E-02
  0.367322624E+00  0.310090045E-02
  0.370084435E+00  0.309744570E-02
  0.372867405E+00  0.309399515E-02
  0.375671804E+00  0.309054879E-02
  0.378497928E+00  0.308710616E-02
  0.381346077E+00  0.308366702E-02
  0.384216547E+00  0.308023137E-02
  0.387109637E+00  0.307679968E-02
  0.390025645E+00  0.307337102E-02
  0.392964900E+00  0.306994584E-02
  0.395927697E+00  0.306652323E-02
  0.398914397E+00  0.306310342E-02
  0.401925325E+00  0.305968663E-02
  0.404960781E+00  0.305627263E-02
  0.408021122E+00  0.305286096E-02
  0.411106735E+00  0.304945186E-02
  0.414217919E+00  0.304604461E-02
  0.417355090E+00  0.304263947E-02
  0.420518577E+00  0.303923665E-02
  0.423708767E+00  0.303583569E-02
  0.426926076E+00  0.303243636E-02
  0.430170834E+00  0.302903843E-02
  0.433443457E+00  0.302564166E-02
  0.436744392E+00  0.302224653E-02
  0.440073997E+00  0.301885256E-02
  0.443432748E+00  0.301545975E-02
  0.446821034E+00  0.301206764E-02
  0.450239301E+00  0.300867623E-02
  0.453687996E+00  0.300528528E-02
  0.457167566E+00  0.300189527E-02
  0.460678488E+00  0.299850549E-02
  0.464221239E+00  0.299511594E-02
  0.467796296E+00  0.299172639E-02
  0.471404135E+00  0.298833684E-02
  0.475045294E+00  0.298494729E-02
  0.478720278E+00  0.298155728E-02
  0.482429564E+00  0.297816703E-02
  0.486173749E+00  0.297477585E-02
  0.489953339E+00  0.297138398E-02
  0.493768901E+00  0.296799163E-02
  0.497621000E+00  0.296459813E-02
  0.501510203E+00  0.296120346E-02
  0.505437136E+00  0.295780739E-02
  0.509402394E+00  0.295440992E-02
  0.513406575E+00  0.295101106E-02
  0.517450333E+00  0.294761034E-02
  0.521534264E+00  0.294420798E-02
  0.525659084E+00  0.294080330E-02
  0.529825449E+00  0.293739676E-02
  0.534034073E+00  0.293398811E-02
  0.538285613E+00  0.293057691E-02
  0.542580783E+00  0.292716315E-02
  0.546920359E+00  0.292374636E-02
  0.551304996E+00  0.292032701E-02
  0.555735588E+00  0.291690486E-02
  0.560212910E+00  0.291347946E-02
  0.564737678E+00  0.291005056E-02
  0.569310725E+00  0.290661817E-02
  0.573933005E+00  0.290318229E-02
  0.578605235E+00  0.289974292E-02
  0.583328366E+00  0.289629935E-02
  0.588103294E+00  0.289285183E-02
  0.592930913E+00  0.288940012E-02
  0.597812235E+00  0.288594398E-02
  0.602748156E+00  0.288248365E-02
  0.607739687E+00  0.287901820E-02
  0.612787843E+00  0.287554739E-02
  0.617893636E+00  0.287207100E-02
  0.623058200E+00  0.286858948E-02
  0.628282547E+00  0.286510284E-02
  0.633567870E+00  0.286161038E-02
  0.638915241E+00  0.285811210E-02
  0.644325852E+00  0.285460823E-02
  0.649800956E+00  0.285109831E-02
  0.655341744E+00  0.284758210E-02
  0.660949469E+00  0.284405937E-02
  0.666625440E+00  0.284052989E-02
  0.672371030E+00  0.283699390E-02
  0.678187490E+00  0.283345068E-02
  0.684076369E+00  0.282990048E-02
  0.690039039E+00  0.282634282E-02
  0.696076930E+00  0.282277795E-02
  0.702191651E+00  0.281920517E-02
  0.708384693E+00  0.281562447E-02
  0.714657664E+00  0.281203538E-02
  0.721012235E+00  0.280843838E-02
  0.727450073E+00  0.280483277E-02
  0.733972907E+00  0.280121830E-02
  0.740582585E+00  0.279759476E-02
  0.747280836E+00  0.279396214E-02
  0.754069626E+00  0.279032020E-02
  0.760950863E+00  0.278666848E-02
  0.767926574E+00  0.278300722E-02
  0.774998784E+00  0.277933571E-02
  0.782169580E+00  0.277565396E-02
  0.789441168E+00  0.277196174E-02
  0.796815813E+00  0.276825880E-02
  0.804295838E+00  0.276454468E-02
  0.811883509E+00  0.276081963E-02
  0.819581389E+00  0.275708293E-02
  0.827391982E+00  0.275333459E-02
  0.835317791E+00  0.274957414E-02
  0.843361616E+00  0.274580158E-02
  0.851526141E+00  0.274201622E-02
  0.859814286E+00  0.273821829E-02
  0.868228912E+00  0.273440708E-02
  0.876773179E+00  0.273058261E-02
  0.885450065E+00  0.272674439E-02
  0.894262850E+00  0.272289244E-02
  0.903214991E+00  0.271902606E-02
  0.912309766E+00  0.271514500E-02
  0.921550870E+00  0.271124928E-02
  0.930941939E+00  0.270733843E-02
  0.940486789E+00  0.270341197E-02
  0.950189352E+00  0.269946922E-02
  0.960053682E+00  0.269550993E-02
  0.970084071E+00  0.269153435E-02
  0.980284810E+00  0.268754316E-02
  0.990660429E+00  0.268354593E-02
  0.100121558E+01  0.267951260E-02
  0.101195526E+01  0.267545599E-02
  0.102269483E+01  0.267145969E-02
  0.103343451E+01  0.266751787E-02
  0.104417408E+01  0.266360887E-02
  0.105491364E+01  0.265974435E-02
  0.106565332E+01  0.265592313E-02
  0.107639289E+01  0.265214616E-02
  0.108713257E+01  0.264841295E-02
  0.109787214E+01  0.264472305E-02
  0.110861182E+01  0.264107576E-02
  0.111935139E+01  0.263747014E-02
  0.113009095E+01  0.263390574E-02
  0.114083064E+01  0.263038184E-02
  0.115157020E+01  0.262689777E-02
  0.116230989E+01  0.262345280E-02
  0.117304945E+01  0.262004626E-02
  0.118378913E+01  0.261667743E-02
  0.119452870E+01  0.261334586E-02
  0.120526838E+01  0.261005037E-02
  0.121600795E+01  0.260679075E-02
  0.122674751E+01  0.260356627E-02
  0.123748720E+01  0.260037626E-02
  0.124822676E+01  0.259722024E-02
  0.125896645E+01  0.259409728E-02
  0.126970601E+01  0.259100716E-02
  0.128044569E+01  0.258794916E-02
  0.129118526E+01  0.258492259E-02
  0.130192482E+01  0.258192699E-02
  0.131266451E+01  0.257896190E-02
  0.132340407E+01  0.257602660E-02
  0.133414376E+01  0.257312087E-02
  0.134488332E+01  0.257024402E-02
  0.135562301E+01  0.256739557E-02
  0.136636257E+01  0.256457506E-02
  0.137710226E+01  0.256178225E-02
  0.138784182E+01  0.255901623E-02
  0.139858139E+01  0.255627651E-02
  0.140932107E+01  0.255356333E-02
  0.142006063E+01  0.255087577E-02
  0.143080032E+01  0.254821358E-02
  0.144153988E+01  0.254557608E-02
  0.145227957E+01  0.254296302E-02
  0.146301913E+01  0.254037441E-02
  0.147375882E+01  0.253780955E-02
  0.148449838E+01  0.253526773E-02
  0.149523795E+01  0.253274897E-02
  0.150597763E+01  0.253025303E-02
  0.151671720E+01  0.252777943E-02
  0.152745688E+01  0.252532796E-02
  0.153819644E+01  0.252289814E-02
  0.154893613E+01  0.252048951E-02
  0.155967569E+01  0.251810206E-02
  0.157041526E+01  0.251573557E-02
  0.158115494E+01  0.251338957E-02
  0.159189451E+01  0.251106359E-02
  0.160263419E+01  0.250875787E-02
  0.161337376E+01  0.250647170E-02
  0.162411344E+01  0.250420533E-02
  0.163485301E+01  0.250195805E-02
  0.164559269E+01  0.249972986E-02
  0.165633225E+01  0.249752053E-02
  0.166707182E+01  0.249533006E-02
  0.167781150E+01  0.249315798E-02
  0.168855107E+01  0.249100407E-02
  0.169929075E+01  0.248886808E-02
  0.171003032E+01  0.248675002E-02
  0.172077000E+01  0.248465035E-02
  0.173150957E+01  0.248256861E-02
  0.174224913E+01  0.248050503E-02
  0.175298882E+01  0.247845938E-02
  0.176372838E+01  0.247643166E-02
  0.177446806E+01  0.247442210E-02
  0.178520763E+01  0.247243093E-02
  0.179594731E+01  0.247045839E-02
  0.180668688E+01  0.246850494E-02
  0.181742656E+01  0.246657082E-02
  0.182816613E+01  0.246465649E-02
  0.183890569E+01  0.246276311E-02
  0.184964538E+01  0.246089161E-02
  0.186038494E+01  0.245904340E-02
  0.187112463E+01  0.245722034E-02
  0.188186419E+01  0.245542428E-02
  0.189260387E+01  0.245365826E-02
  0.190334344E+01  0.245192670E-02
  0.191408300E+01  0.245023496E-02
  0.192482269E+01  0.244859071E-02
  0.193556225E+01  0.244701048E-02
  0.194630194E+01  0.244551431E-02
  0.195704150E+01  0.244416134E-02
  0.196778119E+01  0.244286470E-02
  0.197852075E+01  0.244219345E-02
  0.198926044E+01  0.244009634E-02
zone t="FUN3D"
 0.000000000E+00 1.556848455E-02
 1.000000047E-03 1.081990544E-02
 2.001968445E-03 5.673216656E-03
 3.005924402E-03 5.071277730E-03
 4.011887591E-03 4.736858420E-03
 5.019877572E-03 4.489822313E-03
 6.029913668E-03 4.296341445E-03
 7.042016368E-03 4.141821526E-03
 8.056204766E-03 4.020279739E-03
 9.072500281E-03 3.928843420E-03
 1.009092201E-02 3.866143525E-03
 1.111149136E-02 3.831427312E-03
 1.213422790E-02 3.823819337E-03
 1.315915212E-02 3.841543337E-03
 1.418628637E-02 3.881275654E-03
 1.521565020E-02 3.937923349E-03
 1.624726504E-02 4.005024210E-03
 1.728115417E-02 4.075674806E-03
 1.831733435E-02 4.143643659E-03
 1.935583353E-02 4.204238299E-03
 2.039666846E-02 4.254676867E-03
 2.143986151E-02 4.293959588E-03
 2.248543687E-02 4.322429653E-03
 2.353341691E-02 4.341246560E-03
 2.458382212E-02 4.351932555E-03
 2.563667670E-02 4.356058314E-03
 2.669200115E-02 4.355061334E-03
 2.774982154E-02 4.350177944E-03
 2.881015837E-02 4.342423286E-03
 2.987303585E-02 4.332604818E-03
 3.093848005E-02 4.321347922E-03
 3.200650960E-02 4.309129901E-03
 3.307715058E-02 4.296306055E-03
 3.415042907E-02 4.283141345E-03
 3.522636741E-02 4.269827623E-03
 3.630498797E-02 4.256502725E-03
 3.738632053E-02 4.243262112E-03
 3.847038746E-02 4.230171442E-03
 3.955721110E-02 4.217273556E-03
 4.064681754E-02 4.204594065E-03
 4.173923656E-02 4.192147870E-03
 4.283448681E-02 4.179940093E-03
 4.393260181E-02 4.167971201E-03
 4.503360018E-02 4.156235605E-03
 4.613751546E-02 4.144727252E-03
 4.724436626E-02 4.133435898E-03
 4.835418612E-02 4.122351762E-03
 4.946699739E-02 4.111465067E-03
 5.058282986E-02 4.100765102E-03
 5.170170963E-02 4.090242554E-03
 5.282366648E-02 4.079887178E-03
 5.394872278E-02 4.069691058E-03
 5.507691577E-02 4.059645347E-03
 5.620826408E-02 4.049743526E-03
 5.734280124E-02 4.039978608E-03
 5.848055333E-02 4.030344076E-03
 5.962155387E-02 4.020834342E-03
 6.076582894E-02 4.011444282E-03
 6.191340834E-02 4.002170172E-03
 6.306432188E-02 3.993008751E-03
 6.421860307E-02 3.983955365E-03
 6.537627429E-02 3.975007683E-03
 6.653737277E-02 3.966162447E-03
 6.770192832E-02 3.957416862E-03
 6.886997819E-02 3.948769066E-03
 7.004153728E-02 3.940215800E-03
 7.121665031E-02 3.931755200E-03
 7.239534706E-02 3.923385404E-03
 7.357765734E-02 3.915104549E-03
 7.476361841E-02 3.906910773E-03
 7.595326006E-02 3.898801981E-03
 7.714661211E-02 3.890777007E-03
 7.834371924E-02 3.882834222E-03
 7.954459637E-02 3.874971997E-03
 8.074929565E-02 3.867188701E-03
 8.195784688E-02 3.859482938E-03
 8.317027986E-02 3.851853311E-03
 8.438663185E-02 3.844298655E-03
 8.560694009E-02 3.836817341E-03
 8.683124185E-02 3.829408204E-03
 8.805956692E-02 3.822069848E-03
 8.929195255E-02 3.814801108E-03
 9.052844346E-02 3.807600588E-03
 9.176907688E-02 3.800467355E-03
 9.301388264E-02 3.793400247E-03
 9.426289797E-02 3.786397865E-03
 9.551616758E-02 3.779459279E-03
 9.677372128E-02 3.772583557E-03
 9.803561121E-02 3.765769070E-03
 9.930186719E-02 3.759015119E-03
 1.005725339E-01 3.752320539E-03
 1.018476486E-01 3.745684400E-03
 1.031272486E-01 3.739105538E-03
 1.044113860E-01 3.732583020E-03
 1.057000905E-01 3.726116149E-03
 1.069934070E-01 3.719703294E-03
 1.082913801E-01 3.713344224E-03
 1.095940545E-01 3.707037773E-03
 1.109014750E-01 3.700783011E-03
 1.122136712E-01 3.694579238E-03
 1.135307029E-01 3.688425058E-03
 1.148526073E-01 3.682320239E-03
 1.161794290E-01 3.676263383E-03
 1.175112203E-01 3.670253791E-03
 1.188480183E-01 3.664290765E-03
 1.201898679E-01 3.658373607E-03
 1.215368286E-01 3.652501386E-03
 1.228889376E-01 3.646673867E-03
 1.242462471E-01 3.640889889E-03
 1.256088018E-01 3.635148751E-03
 1.269766539E-01 3.629449988E-03
 1.283498406E-01 3.623792669E-03
 1.297284365E-01 3.618176328E-03
 1.311124712E-01 3.612600034E-03
 1.325020045E-01 3.607063321E-03
 1.338970959E-01 3.601565259E-03
 1.352977753E-01 3.596105613E-03
 1.367041171E-01 3.590683686E-03
 1.381161511E-01 3.585298778E-03
 1.395339519E-01 3.579950193E-03
 1.409575790E-01 3.574637463E-03
 1.423870623E-01 3.569359891E-03
 1.438224763E-01 3.564117011E-03
 1.452638805E-01 3.558908356E-03
 1.467113197E-01 3.553733230E-03
 1.481648535E-01 3.548591165E-03
 1.496245414E-01 3.543481696E-03
 1.510904431E-01 3.538404126E-03
 1.525626183E-01 3.533358220E-03
 1.540411264E-01 3.528343281E-03
 1.555260271E-01 3.523358842E-03
 1.570173800E-01 3.518404672E-03
 1.585152596E-01 3.513479838E-03
 1.600197256E-01 3.508584341E-03
 1.615308374E-01 3.503717715E-03
 1.630486548E-01 3.498879028E-03
 1.645732373E-01 3.494068049E-03
 1.661046743E-01 3.489284543E-03
 1.676430106E-01 3.484527813E-03
 1.691883355E-01 3.479797626E-03
 1.707406938E-01 3.475093748E-03
 1.723001748E-01 3.470415249E-03
 1.738668382E-01 3.465762129E-03
 1.754407436E-01 3.461134154E-03
 1.770219952E-01 3.456530627E-03
 1.786106378E-01 3.451951314E-03
 1.802067459E-01 3.447395749E-03
 1.818104088E-01 3.442863468E-03
 1.834216863E-01 3.438354237E-03
 1.850406677E-01 3.433867591E-03
 1.866674274E-01 3.429403529E-03
 1.883020550E-01 3.424961353E-03
 1.899445951E-01 3.420540830E-03
 1.915951520E-01 3.416141495E-03
 1.932538152E-01 3.411763348E-03
 1.949206442E-01 3.407405922E-03
 1.965957433E-01 3.403068753E-03
 1.982791722E-01 3.398751840E-03
 1.999710351E-01 3.394454485E-03
 2.016714215E-01 3.390176455E-03
 2.033804059E-01 3.385917749E-03
 2.050980777E-01 3.381677903E-03
 2.068245411E-01 3.377456684E-03
 2.085598707E-01 3.373253625E-03
 2.103041708E-01 3.369068494E-03
 2.120575309E-01 3.364901058E-03
 2.138200402E-01 3.360751085E-03
 2.155917883E-01 3.356618341E-03
 2.173728943E-01 3.352502594E-03
 2.191634327E-01 3.348403145E-03
 2.209635228E-01 3.344320226E-03
 2.227732539E-01 3.340253374E-03
 2.245927304E-01 3.336202586E-03
 2.264220566E-01 3.332167398E-03
 2.282613367E-01 3.328147577E-03
 2.301106751E-01 3.324142657E-03
 2.319701910E-01 3.320152638E-03
 2.338399738E-01 3.316177521E-03
 2.357201427E-01 3.312216839E-03
 2.376108319E-01 3.308270359E-03
 2.395121157E-01 3.304337850E-03
 2.414241433E-01 3.300418844E-03
 2.433470190E-01 3.296513343E-03
 2.452808470E-01 3.292621346E-03
 2.472257763E-01 3.288742620E-03
 2.491818964E-01 3.284876700E-03
 2.511493564E-01 3.281023353E-03
 2.531282902E-01 3.277182346E-03
 2.551187873E-01 3.273353446E-03
 2.571209967E-01 3.269536654E-03
 2.591350675E-01 3.265731968E-03
 2.611611187E-01 3.261938691E-03
 2.631992698E-01 3.258156823E-03
 2.652496696E-01 3.254385665E-03
 2.673124373E-01 3.250625217E-03
 2.693877518E-01 3.246875713E-03
 2.714757323E-01 3.243136918E-03
 2.735765278E-01 3.239408601E-03
 2.756902874E-01 3.235690529E-03
 2.778171599E-01 3.231982701E-03
 2.799572945E-01 3.228284651E-03
 2.821108401E-01 3.224596614E-03
 2.842779458E-01 3.220918123E-03
 2.864587903E-01 3.217248945E-03
 2.886535227E-01 3.213588847E-03
 2.908623219E-01 3.209938062E-03
 2.930853069E-01 3.206295893E-03
 2.953226864E-01 3.202662803E-03
 2.975746393E-01 3.199038096E-03
 2.998413146E-01 3.195421770E-03
 3.021228909E-01 3.191813594E-03
 3.044195473E-01 3.188213566E-03
 3.067314625E-01 3.184621455E-03
 3.090588450E-01 3.181037027E-03
 3.114018440E-01 3.177460283E-03
 3.137606978E-01 3.173890756E-03
 3.161355257E-01 3.170328448E-03
 3.185265958E-01 3.166773356E-03
 3.209340870E-01 3.163225250E-03
 3.233581781E-01 3.159684129E-03
 3.257990777E-01 3.156149294E-03
 3.282570243E-01 3.152621211E-03
 3.307321966E-01 3.149099415E-03
 3.332248330E-01 3.145583672E-03
 3.357351422E-01 3.142074216E-03
 3.382633626E-01 3.138570581E-03
 3.408097029E-01 3.135072766E-03
 3.433744013E-01 3.131580306E-03
 3.459576964E-01 3.128093667E-03
 3.485597968E-01 3.124612151E-03
 3.511810005E-01 3.121135756E-03
 3.538214862E-01 3.117664717E-03
 3.564815521E-01 3.114198335E-03
 3.591614366E-01 3.110736841E-03
 3.618614078E-01 3.107279772E-03
 3.645817339E-01 3.103827126E-03
 3.673226237E-01 3.100378904E-03
 3.700844347E-01 3.096935106E-03
 3.728674054E-01 3.093495034E-03
 3.756718040E-01 3.090059152E-03
 3.784979284E-01 3.086626995E-03
 3.813460767E-01 3.083198564E-03
 3.842165470E-01 3.079773625E-03
 3.871096373E-01 3.076351946E-03
 3.900256455E-01 3.072933527E-03
 3.929648995E-01 3.069518134E-03
 3.959276974E-01 3.066105768E-03
 3.989143968E-01 3.062696429E-03
 4.019253254E-01 3.059289651E-03
 4.049607813E-01 3.055885201E-03
 4.080211222E-01 3.052483546E-03
 4.111067355E-01 3.049083985E-03
 4.142179191E-01 3.045686753E-03
 4.173550904E-01 3.042291617E-03
 4.205185771E-01 3.038898343E-03
 4.237087667E-01 3.035506699E-03
 4.269260764E-01 3.032116685E-03
 4.301708341E-01 3.028728301E-03
 4.334434569E-01 3.025341313E-03
 4.367443919E-01 3.021955257E-03
 4.400739968E-01 3.018570598E-03
 4.434327483E-01 3.015186870E-03
 4.468210340E-01 3.011803841E-03
 4.502393007E-01 3.008421743E-03
 4.536879957E-01 3.005040111E-03
 4.571675658E-01 3.001658944E-03
 4.606784880E-01 2.998278011E-03
 4.642212391E-01 2.994897310E-03
 4.677962959E-01 2.991516609E-03
 4.714041352E-01 2.988135442E-03
 4.750452936E-01 2.984753810E-03
 4.787202775E-01 2.981371479E-03
 4.824295640E-01 2.977988683E-03
 4.861737490E-01 2.974605188E-03
 4.899533391E-01 2.971221227E-03
 4.937689006E-01 2.967836102E-03
 4.976209998E-01 2.964449814E-03
 5.015102029E-01 2.961062593E-03
 5.054371357E-01 2.957673743E-03
 5.094023943E-01 2.954283729E-03
 5.134065747E-01 2.950891852E-03
 5.174503326E-01 2.947498346E-03
 5.215342641E-01 2.944102744E-03
 5.256590843E-01 2.940705512E-03
 5.298254490E-01 2.937305719E-03
 5.340340734E-01 2.933903830E-03
 5.382856131E-01 2.930499380E-03
 5.425807834E-01 2.927092370E-03
 5.469203591E-01 2.923682565E-03
 5.513049960E-01 2.920269966E-03
 5.557355881E-01 2.916854108E-03
 5.602129102E-01 2.913435223E-03
 5.647376776E-01 2.910012845E-03
 5.693107247E-01 2.906586975E-03
 5.739330053E-01 2.903157612E-03
 5.786052346E-01 2.899724292E-03
 5.833283663E-01 2.896287013E-03
 5.881032944E-01 2.892845776E-03
 5.929309130E-01 2.889400348E-03
 5.978122354E-01 2.885950264E-03
 6.027481556E-01 2.882495755E-03
 6.077396870E-01 2.879036358E-03
 6.127878428E-01 2.875572303E-03
 6.178936362E-01 2.872102894E-03
 6.230581999E-01 2.868628362E-03
 6.282825470E-01 2.865148475E-03
 6.335678697E-01 2.861663001E-03
 6.389152408E-01 2.858171705E-03
 6.443258524E-01 2.854674589E-03
 6.498009562E-01 2.851171186E-03
 6.553417444E-01 2.847661730E-03
 6.609494686E-01 2.844145754E-03
 6.666254401E-01 2.840623260E-03
 6.723710299E-01 2.837093780E-03
 6.781874895E-01 2.833557315E-03
 6.840763688E-01 2.830013866E-03
 6.900390387E-01 2.826462733E-03
 6.960769296E-01 2.822904149E-03
 7.021916509E-01 2.819337882E-03
 7.083846927E-01 2.815763699E-03
 7.146576643E-01 2.812181367E-03
 7.210122347E-01 2.808590652E-03
 7.274500728E-01 2.804991324E-03
 7.339729071E-01 2.801383147E-03
 7.405825853E-01 2.797766123E-03
 7.472808361E-01 2.794139786E-03
 7.540696263E-01 2.790504135E-03
 7.609508634E-01 2.786858939E-03
 7.679265738E-01 2.783203730E-03
 7.749987841E-01 2.779538510E-03
 7.821695805E-01 2.775862813E-03