# turbulence results for k-kL-MEAH2015 model at x=0.97008 
VARIABLES = "Y" "kL" "k" "mu_t"
ZONE T="CFL3D"
 0.000000000E+00 0.000000000E+00 0.000000000E+00 0.000000000E+00
 4.999999987E-07 4.845033175E-08 2.137606181E-08 1.440822962E-04
 1.000465204E-06 2.632132805E-07 7.444942440E-08 4.837368906E-04
 1.501861107E-06 8.116567756E-07 1.626165869E-07 1.052552601E-03
 2.004654107E-06 1.863382067E-06 2.862028339E-07 1.851551235E-03
 2.509312253E-06 3.591400400E-06 4.454842042E-07 2.883085515E-03
 3.016304618E-06 6.173299425E-06 6.407850606E-07 4.150300287E-03
 3.526103228E-06 9.792423043E-06 8.724913414E-07 5.657087546E-03
 4.039182386E-06 1.463905755E-05 1.141052394E-06 7.408081088E-03
 4.556018666E-06 2.091162787E-05 1.446979240E-06 9.408652782E-03
 5.077094102E-06 2.881795444E-05 1.790844294E-06 1.166493539E-02
 5.602892543E-06 3.857643605E-05 2.173276016E-06 1.418381184E-02
 6.133903298E-06 5.041735130E-05 2.594956868E-06 1.697293669E-02
 6.670620678E-06 6.458415737E-05 3.056621381E-06 2.004075982E-02
 7.213543540E-06 8.133477968E-05 3.559048082E-06 2.339651808E-02
 7.763177564E-06 1.009429543E-04 4.103058473E-06 2.705027163E-02
 8.320033885E-06 1.236996031E-04 4.689509751E-06 3.101290762E-02
 8.884630006E-06 1.499141799E-04 5.319288903E-06 3.529616445E-02
 9.457491615E-06 1.799161691E-04 5.993307695E-06 3.991264850E-02
 1.003915168E-05 2.140564611E-04 6.712495633E-06 4.487587139E-02
 1.063015134E-05 2.527088509E-04 7.477791769E-06 5.020024627E-02
 1.123103993E-05 2.962714643E-04 8.290137885E-06 5.590112880E-02
 1.184237772E-05 3.451685770E-04 9.150472579E-06 6.199486926E-02
 1.246473221E-05 3.998516477E-04 1.005971626E-05 6.849879026E-02
 1.309868276E-05 4.608013551E-04 1.101876842E-05 7.543125004E-02
 1.374481872E-05 5.285289371E-04 1.202849489E-05 8.281168342E-02
 1.440374217E-05 6.035780534E-04 1.308972060E-05 9.066063911E-02
 1.507606521E-05 6.865259493E-04 1.420321405E-05 9.899977595E-02
 1.576241448E-05 7.779861335E-04 1.536968921E-05 1.078520194E-01
 1.646342571E-05 8.786087274E-04 1.658977453E-05 1.172414348E-01
 1.717975465E-05 9.890835499E-04 1.786402754E-05 1.271934807E-01
 1.791206523E-05 1.110141049E-03 1.919290116E-05 1.377348900E-01
 1.866104139E-05 1.242554863E-03 2.057675738E-05 1.488939375E-01
 1.942737617E-05 1.387142460E-03 2.201582720E-05 1.607002020E-01
 2.021178625E-05 1.544769388E-03 2.351023613E-05 1.731850207E-01
 2.101499740E-05 1.716348575E-03 2.505996235E-05 1.863812357E-01
 2.183776087E-05 1.902845339E-03 2.666486034E-05 2.003235668E-01
 2.268083881E-05 2.105276799E-03 2.832461541E-05 2.150484324E-01
 2.354501703E-05 2.324717119E-03 3.003877646E-05 2.305943221E-01
 2.443110134E-05 2.562298905E-03 3.180672866E-05 2.470018119E-01
 2.533991210E-05 2.819214016E-03 3.362768621E-05 2.643135488E-01
 2.627229696E-05 3.096719971E-03 3.550069232E-05 2.825746536E-01
 2.722912359E-05 3.396140877E-03 3.742463377E-05 3.018327355E-01
 2.821128328E-05 3.718872089E-03 3.939821181E-05 3.221380115E-01
 2.921968553E-05 4.066380206E-03 4.141995669E-05 3.435434401E-01
 3.025527258E-05 4.440213554E-03 4.348823859E-05 3.661051989E-01
 3.131900667E-05 4.842001013E-03 4.560124944E-05 3.898825943E-01
 3.241187733E-05 5.273458082E-03 4.775702837E-05 4.149383903E-01
 3.353489956E-05 5.736389663E-03 4.995343988E-05 4.413388371E-01
 3.468912109E-05 6.232701242E-03 5.218822116E-05 4.691543281E-01
 3.587561514E-05 6.764396094E-03 5.445894931E-05 4.984591603E-01
 3.709548400E-05 7.333585992E-03 5.676307410E-05 5.293321013E-01
 3.834985910E-05 7.942495868E-03 5.909792162E-05 5.618563890E-01
 3.963991549E-05 8.593471721E-03 6.146071973E-05 5.961204767E-01
 4.096685007E-05 9.288985282E-03 6.384859444E-05 6.322177649E-01
 4.233189611E-05 1.003163680E-02 6.625858077E-05 6.702469587E-01
 4.373632328E-05 1.082416903E-02 6.868765195E-05 7.103124857E-01
 4.518143760E-05 1.166946720E-02 7.113273750E-05 7.525246143E-01
 4.666858513E-05 1.257059071E-02 7.359074516E-05 7.970011234E-01
 4.819914830E-05 1.353098452E-02 7.605853170E-05 8.438799977E-01
 4.977455319E-05 1.455452479E-02 7.853294665E-05 8.933217525E-01
 5.139626228E-05 1.564536430E-02 8.101079584E-05 9.454982281E-01
 5.306578896E-05 1.680795662E-02 8.348884876E-05 1.000594139E+00
 5.478467938E-05 1.804706641E-02 8.596381667E-05 1.058807373E+00
 5.655453788E-05 1.936779916E-02 8.843241812E-05 1.120350122E+00
 5.837701246E-05 2.077561803E-02 9.089132800E-05 1.185449839E+00
 6.025379116E-05 2.227634750E-02 9.333718481E-05 1.254349113E+00
 6.218662747E-05 2.387622371E-02 9.576665616E-05 1.327308059E+00
 6.417731493E-05 2.558187023E-02 9.817638784E-05 1.404603243E+00
 6.622770888E-05 2.740034088E-02 1.005630620E-04 1.486528993E+00
 6.833971565E-05 2.933911234E-02 1.029233899E-04 1.573397756E+00
 7.051529974E-05 3.140609711E-02 1.052541265E-04 1.665539861E+00
 7.275648386E-05 3.360962868E-02 1.075521213E-04 1.763303399E+00
 7.506535621E-05 3.595846519E-02 1.098143111E-04 1.867053747E+00
 7.744405593E-05 3.846175596E-02 1.120377492E-04 1.977172256E+00
 7.989480946E-05 4.112903029E-02 1.142196415E-04 2.094055891E+00
 8.241988689E-05 4.397014156E-02 1.163573615E-04 2.218113661E+00
 8.502163837E-05 4.699521884E-02 1.184484790E-04 2.349765539E+00
 8.770249406E-05 5.021461099E-02 1.204907821E-04 2.489439726E+00
 9.046493506E-05 5.363878235E-02 1.224822918E-04 2.637567520E+00
 9.331152978E-05 5.727824941E-02 1.244213054E-04 2.794580698E+00
 9.624494123E-05 6.114349887E-02 1.263063896E-04 2.960908175E+00
 9.926789062E-05 6.524483860E-02 1.281363948E-04 3.136969328E+00
 1.023831865E-04 6.959231198E-02 1.299104624E-04 3.323170424E+00
 1.055937319E-04 7.419560105E-02 1.316280395E-04 3.519900560E+00
 1.089025172E-04 7.906392217E-02 1.332888496E-04 3.727527857E+00
 1.123126131E-04 8.420591056E-02 1.348929363E-04 3.946393967E+00
 1.158271916E-04 8.962962031E-02 1.364405907E-04 4.176814079E+00
 1.194495271E-04 9.534239024E-02 1.379323367E-04 4.419074059E+00
 1.231829810E-04 1.013508812E-01 1.393689745E-04 4.673428059E+00
 1.270310458E-04 1.076610386E-01 1.407514646E-04 4.940101624E+00
 1.309972722E-04 1.142781079E-01 1.420809858E-04 5.219290733E+00
 1.350853854E-04 1.212067902E-01 1.433588332E-04 5.511168003E+00
 1.392991544E-04 1.284510940E-01 1.445864764E-04 5.815878868E+00
 1.436425227E-04 1.360146105E-01 1.457654143E-04 6.133551121E+00
 1.481195213E-04 1.439005136E-01 1.468972769E-04 6.464297771E+00
 1.527343265E-04 1.521117389E-01 1.479837229E-04 6.808222294E+00
 1.574912167E-04 1.606509089E-01 1.490264112E-04 7.165418625E+00
 1.623946155E-04 1.695206314E-01 1.500270300E-04 7.535978794E+00
 1.674490923E-04 1.787234545E-01 1.509872673E-04 7.919996738E+00
 1.726593473E-04 1.882620156E-01 1.519087527E-04 8.317571640E+00
 1.780302409E-04 1.981391311E-01 1.527931163E-04 8.728813171E+00
 1.835667499E-04 2.083577365E-01 1.536419441E-04 9.153834343E+00
 1.892740256E-04 2.189210653E-01 1.544567203E-04 9.592765808E+00
 1.951573940E-04 2.298326790E-01 1.552389294E-04 1.004575157E+01
 2.012223267E-04 2.410964221E-01 1.559899683E-04 1.051295090E+01
 2.074744407E-04 2.527164817E-01 1.567111758E-04 1.099453735E+01
 2.139195858E-04 2.646974921E-01 1.574038324E-04 1.149070358E+01
 2.205637284E-04 2.770443261E-01 1.580691314E-04 1.200165749E+01
 2.274130820E-04 2.897624373E-01 1.587082370E-04 1.252762699E+01
 2.344739914E-04 3.028574586E-01 1.593222405E-04 1.306885338E+01
 2.417530341E-04 3.163355291E-01 1.599121460E-04 1.362559700E+01
 2.492569620E-04 3.302031159E-01 1.604789431E-04 1.419813442E+01
 2.569928183E-04 3.444671333E-01 1.610235340E-04 1.478676224E+01
 2.649677335E-04 3.591346741E-01 1.615467772E-04 1.539178371E+01
 2.731891291E-04 3.742133081E-01 1.620494731E-04 1.601352501E+01
 2.816647175E-04 3.897110522E-01 1.625323930E-04 1.665233040E+01
 2.904023277E-04 4.056359231E-01 1.629962353E-04 1.730854797E+01
 2.994100796E-04 4.219964743E-01 1.634416840E-04 1.798254585E+01
 3.086963843E-04 4.388015568E-01 1.638693357E-04 1.867470551E+01
 3.182698856E-04 4.560602307E-01 1.642798015E-04 1.938542366E+01
 3.281394893E-04 4.737818241E-01 1.646736346E-04 2.011510277E+01
 3.383143339E-04 4.919758439E-01 1.650513295E-04 2.086415863E+01
 3.488039365E-04 5.106522441E-01 1.654133666E-04 2.163302612E+01
 3.596180177E-04 5.298209786E-01 1.657602115E-04 2.242214203E+01
 3.707666765E-04 5.494923592E-01 1.660922717E-04 2.323195839E+01
 3.822602448E-04 5.696768165E-01 1.664099400E-04 2.406293106E+01
 3.941094328E-04 5.903849006E-01 1.667135803E-04 2.491553307E+01
 4.063252709E-04 6.116275191E-01 1.670035126E-04 2.579024315E+01
 4.189191386E-04 6.334155202E-01 1.672800718E-04 2.668754768E+01
 4.319027066E-04 6.557599306E-01 1.675435487E-04 2.760793686E+01
 4.452880821E-04 6.786718965E-01 1.677941909E-04 2.855191612E+01
 4.590877215E-04 7.021626830E-01 1.680322603E-04 2.951998901E+01
 4.733144306E-04 7.262435555E-01 1.682579605E-04 3.051267052E+01
 4.879814805E-04 7.509259582E-01 1.684715244E-04 3.153048134E+01
 5.031024921E-04 7.762211561E-01 1.686731266E-04 3.257394028E+01
 5.186916096E-04 8.021406531E-01 1.688629418E-04 3.364358521E+01
 5.347632105E-04 8.286957145E-01 1.690411154E-04 3.473992920E+01
 5.513323122E-04 8.558976650E-01 1.692077785E-04 3.586351395E+01
 5.684143398E-04 8.837577105E-01 1.693630620E-04 3.701487732E+01
 5.860251840E-04 9.122869968E-01 1.695070532E-04 3.819454575E+01
 6.041811430E-04 9.414964318E-01 1.696398394E-04 3.940304565E+01
 6.228992715E-04 9.713969827E-01 1.697614789E-04 4.064092636E+01
 6.421967992E-04 1.001999021E+00 1.698720444E-04 4.190870285E+01
 6.620918284E-04 1.033313155E+00 1.699715795E-04 4.320690918E+01
 6.826028111E-04 1.065349102E+00 1.700600842E-04 4.453605270E+01
 7.037487812E-04 1.098116755E+00 1.701375877E-04 4.589665222E+01
 7.255495293E-04 1.131625652E+00 1.702040609E-04 4.728921509E+01
 7.480251952E-04 1.165884376E+00 1.702595036E-04 4.871422958E+01
 7.711967919E-04 1.200901389E+00 1.703038579E-04 5.017218399E+01
 7.950857980E-04 1.236684680E+00 1.703370945E-04 5.166353989E+01
 8.197145071E-04 1.273241401E+00 1.703591406E-04 5.318875885E+01
 8.451058529E-04 1.310578465E+00 1.703698945E-04 5.474827576E+01
 8.712833514E-04 1.348701477E+00 1.703692687E-04 5.634250641E+01
 8.982714498E-04 1.387615561E+00 1.703571470E-04 5.797185135E+01
 9.260951774E-04 1.427324891E+00 1.703334128E-04 5.963667297E+01
 9.547804948E-04 1.467832804E+00 1.702979062E-04 6.133732605E+01
 9.843540611E-04 1.509141564E+00 1.702504524E-04 6.307411957E+01
 1.014843350E-03 1.551252007E+00 1.701908914E-04 6.484733582E+01
 1.046276768E-03 1.594164014E+00 1.701190195E-04 6.665721893E+01
 1.078683534E-03 1.637876153E+00 1.700346038E-04 6.850396729E+01
 1.112093800E-03 1.682385325E+00 1.699374116E-04 7.038776398E+01
 1.146538649E-03 1.727687001E+00 1.698271954E-04 7.230870819E+01
 1.182050211E-03 1.773775101E+00 1.697036787E-04 7.426687622E+01
 1.218661433E-03 1.820641398E+00 1.695665560E-04 7.626226807E+01
 1.256406307E-03 1.868275881E+00 1.694155217E-04 7.829483032E+01
 1.295320108E-03 1.916666627E+00 1.692502119E-04 8.036446381E+01
 1.335438923E-03 1.965799212E+00 1.690702775E-04 8.247097015E+01
 1.376800123E-03 2.015656710E+00 1.688753109E-04 8.461408997E+01
 1.419442124E-03 2.066220045E+00 1.686649193E-04 8.679347229E+01
 1.463404740E-03 2.117466927E+00 1.684386662E-04 8.900870514E+01
 1.508728717E-03 2.169372082E+00 1.681960566E-04 9.125924683E+01
 1.555456314E-03 2.221907377E+00 1.679365960E-04 9.354448700E+01
 1.603630953E-03 2.275041580E+00 1.676597603E-04 9.586367035E+01
 1.653297455E-03 2.328738689E+00 1.673649822E-04 9.821595001E+01
 1.704502036E-03 2.382960320E+00 1.670516795E-04 1.006003418E+02
 1.757292310E-03 2.437662840E+00 1.667192264E-04 1.030157394E+02
 1.811717520E-03 2.492799282E+00 1.663669391E-04 1.054608841E+02
 1.867828076E-03 2.548316956E+00 1.659941045E-04 1.079343491E+02
 1.925676246E-03 2.604158878E+00 1.655999949E-04 1.104345703E+02
 1.985315932E-03 2.660262823E+00 1.651838247E-04 1.129597778E+02
 2.046802780E-03 2.716561079E+00 1.647447352E-04 1.155080490E+02
 2.110193484E-03 2.772979498E+00 1.642818534E-04 1.180772018E+02
 2.175547648E-03 2.829438210E+00 1.637942332E-04 1.206648865E+02
 2.242925344E-03 2.885850191E+00 1.632809144E-04 1.232684784E+02
 2.312389901E-03 2.942121506E+00 1.627408201E-04 1.258851624E+02
 2.384005813E-03 2.998151064E+00 1.621728443E-04 1.285118103E+02
 2.457839437E-03 3.053829432E+00 1.615758229E-04 1.311450043E+02
 2.533959458E-03 3.109056473E+00 1.609485189E-04 1.337818146E+02
 2.612437122E-03 3.163751364E+00 1.602896227E-04 1.364201660E+02
 2.693345072E-03 3.217832804E+00 1.595977956E-04 1.390580750E+02
 2.776758745E-03 3.271213531E+00 1.588715531E-04 1.416933289E+02
 2.862755442E-03 3.323797703E+00 1.581094402E-04 1.443234863E+02
 2.951415488E-03 3.375482559E+00 1.573098416E-04 1.469457855E+02
 3.042821307E-03 3.426156759E+00 1.564711129E-04 1.495572662E+02
 3.137057880E-03 3.475700855E+00 1.555915223E-04 1.521546478E+02
 3.234212985E-03 3.523986101E+00 1.546692511E-04 1.547343140E+02
 3.334376728E-03 3.570874929E+00 1.537024073E-04 1.572923889E+02
 3.437642707E-03 3.616220474E+00 1.526889682E-04 1.598246155E+02
 3.544106614E-03 3.659865856E+00 1.516268530E-04 1.623264008E+02
 3.653867636E-03 3.701644182E+00 1.505138935E-04 1.647927856E+02
 3.767027752E-03 3.741378069E+00 1.493477903E-04 1.672183838E+02
 3.883692669E-03 3.778879404E+00 1.481261570E-04 1.695974426E+02
 4.003970418E-03 3.813948631E+00 1.468465052E-04 1.719237213E+02
 4.127973225E-03 3.846375227E+00 1.455062156E-04 1.741905365E+02
 4.255816340E-03 3.875936270E+00 1.441025815E-04 1.763907166E+02
 4.387618508E-03 3.902397394E+00 1.426327508E-04 1.785164948E+02
 4.523502663E-03 3.925511599E+00 1.410937548E-04 1.805596466E+02
 4.663594998E-03 3.945019484E+00 1.394825522E-04 1.825112915E+02
 4.808025900E-03 3.960648775E+00 1.377958979E-04 1.843619080E+02
 4.956929944E-03 3.972115040E+00 1.360304741E-04 1.861013489E+02
 5.110444967E-03 3.979120493E+00 1.341828320E-04 1.877187042E+02
 5.268714856E-03 3.981355190E+00 1.322493627E-04 1.892023468E+02
 5.431886297E-03 3.978496552E+00 1.302263699E-04 1.905397949E+02
 5.600110628E-03 3.970209837E+00 1.281100122E-04 1.917176819E+02
 5.773545243E-03 3.956148863E+00 1.258963166E-04 1.927217407E+02
 5.952350795E-03 3.935956240E+00 1.235812233E-04 1.935366669E+02
 6.136693992E-03 3.909264565E+00 1.211605340E-04 1.941460876E+02
 6.326746196E-03 3.875697613E+00 1.186299487E-04 1.945324554E+02
 6.522683892E-03 3.834871531E+00 1.159851017E-04 1.946769104E+02
 6.724690087E-03 3.786396742E+00 1.132215257E-04 1.945592651E+02
 6.932952441E-03 3.729879618E+00 1.103347022E-04 1.941577454E+02
 7.147664204E-03 3.664925575E+00 1.073200838E-04 1.934489441E+02
 7.369025610E-03 3.591141462E+00 1.041731011E-04 1.924075470E+02
 7.597242948E-03 3.508139372E+00 1.008891995E-04 1.910061798E+02
 7.832527161E-03 3.415543318E+00 9.746391152E-05 1.892151794E+02
 8.075099438E-03 3.313045502E+00 9.389284241E-05 1.870053406E+02
 8.325182833E-03 3.200436592E+00 9.017194679E-05 1.843488464E+02
 8.583012037E-03 3.077568054E+00 8.629752119E-05 1.812167969E+02
 8.848825470E-03 2.944363594E+00 8.226646605E-05 1.775789795E+02
 9.122870862E-03 2.800832987E+00 7.807644579E-05 1.734037018E+02
 9.405404329E-03 2.647091627E+00 7.372612163E-05 1.686577301E+02
 9.696686640E-03 2.483385801E+00 6.921551540E-05 1.633064575E+02
 9.996990673E-03 2.310116053E+00 6.454634422E-05 1.573136292E+02
 1.030659489E-02 2.127875090E+00 5.972259532E-05 1.506416168E+02
 1.062578708E-02 1.937485576E+00 5.475117359E-05 1.432512817E+02
 1.095486525E-02 1.740047574E+00 4.964273830E-05 1.351021576E+02
 1.129413396E-02 1.537002683E+00 4.441293640E-05 1.261526718E+02
 1.164390985E-02 1.330203295E+00 3.908386134E-05 1.163602524E+02
 1.200451888E-02 1.122008204E+00 3.368625767E-05 1.056818695E+02
 1.237629540E-02 9.154013991E-01 2.826256969E-05 9.407451630E+01
 1.275958586E-02 7.141415477E-01 2.287129792E-05 8.149557495E+01
 1.315474603E-02 5.229930282E-01 1.759385304E-05 6.790608978E+01
 1.356214564E-02 3.483489454E-01 1.254814197E-05 5.332326889E+01
 1.398216095E-02 2.001518607E-01 7.931313121E-06 3.816961288E+01
 1.441518404E-02 9.211233258E-02 4.113778687E-06 2.395470428E+01
 1.486161817E-02 3.126556054E-02 1.573203804E-06 1.280643082E+01
 1.532187872E-02 7.257230580E-03 3.962406083E-07 5.737564087E+00
 1.579639316E-02 1.098671579E-03 6.184917112E-08 2.120186090E+00
 1.628560200E-02 1.109627701E-04 6.574359723E-09 6.312459111E-01
 1.678996161E-02 8.686371984E-06 7.929148449E-10 1.408415288E-01
 1.730994321E-02 6.857017070E-07 3.288011252E-10 1.982576400E-02
 1.784602553E-02 1.382039869E-07 2.922238562E-10 4.422239028E-03
 1.839871332E-02 1.031739458E-07 2.887582118E-10 3.325774800E-03
 1.896851510E-02 1.010819446E-07 2.885109374E-10 3.259705147E-03
 1.955596358E-02 1.010101656E-07 2.885559292E-10 3.257132368E-03
 2.016160637E-02 1.010549866E-07 2.886207107E-10 3.258211771E-03
 2.078600600E-02 1.011042272E-07 2.886840489E-10 3.259441815E-03
 2.142974176E-02 1.011516844E-07 2.887446671E-10 3.260629717E-03
 2.209341526E-02 1.011971520E-07 2.888025930E-10 3.261768026E-03
 2.277764119E-02 1.012407367E-07 2.888580763E-10 3.262859536E-03
 2.348305658E-02 1.012825521E-07 2.889112005E-10 3.263907041E-03
 2.421032079E-02 1.013227191E-07 2.889621875E-10 3.264913335E-03
 2.496010624E-02 1.013613442E-07 2.890111483E-10 3.265881445E-03
 2.573311329E-02 1.013985198E-07 2.890582218E-10 3.266813233E-03
 2.653006092E-02 1.014343383E-07 2.891035189E-10 3.267711261E-03
 2.735168859E-02 1.014688848E-07 2.891471784E-10 3.268577391E-03
 2.819876187E-02 1.015022377E-07 2.891892559E-10 3.269413952E-03
 2.907206863E-02 1.015344679E-07 2.892299178E-10 3.270222340E-03
 2.997242101E-02 1.015656395E-07 2.892691919E-10 3.271004185E-03
 3.090065904E-02 1.015958020E-07 2.893071338E-10 3.271760885E-03
 3.185764328E-02 1.016250124E-07 2.893438544E-10 3.272494068E-03
 3.284426406E-02 1.016533062E-07 2.893793816E-10 3.273204435E-03
 3.386143968E-02 1.016807261E-07 2.894137430E-10 3.273892915E-03
 3.491012007E-02 1.017073004E-07 2.894469942E-10 3.274560440E-03
 3.599127382E-02 1.017330433E-07 2.894791629E-10 3.275207244E-03
 3.710591421E-02 1.017579834E-07 2.895102491E-10 3.275834257E-03
 3.825507313E-02 1.017821205E-07 2.895402806E-10 3.276441712E-03
 3.943981975E-02 1.018054689E-07 2.895692297E-10 3.277029376E-03
 4.066125676E-02 1.018280358E-07 2.895971518E-10 3.277597949E-03
 4.192052409E-02 1.018498210E-07 2.896240192E-10 3.278146964E-03
 4.321879148E-02 1.018708105E-07 2.896497764E-10 3.278676886E-03
 4.455726221E-02 1.018910112E-07 2.896745066E-10 3.279187018E-03
 4.593718797E-02 1.019104090E-07 2.896981266E-10 3.279677825E-03
 4.735985026E-02 1.019290110E-07 2.897206364E-10 3.280149074E-03
 4.882656783E-02 1.019468030E-07 2.897420914E-10 3.280600300E-03
 5.033871159E-02 1.019637921E-07 2.897624640E-10 3.281031735E-03
 5.189768597E-02 1.019799711E-07 2.897817264E-10 3.281443147E-03
 5.350494012E-02 1.019953473E-07 2.897999341E-10 3.281834768E-03
 5.516197160E-02 1.020099205E-07 2.898170870E-10 3.282206599E-03
 5.687032267E-02 1.020236908E-07 2.898331852E-10 3.282558639E-03
 5.863158032E-02 1.020366796E-07 2.898482843E-10 3.282891121E-03
 6.044737995E-02 1.020489009E-07 2.898623841E-10 3.283204278E-03
 6.231941655E-02 1.020603548E-07 2.898755402E-10 3.283498576E-03
 6.424943358E-02 1.020710627E-07 2.898877804E-10 3.283774015E-03
 6.623921543E-02 1.020810529E-07 2.898991325E-10 3.284031060E-03
 6.829062104E-02 1.020903468E-07 2.899096518E-10 3.284270409E-03
 7.040556520E-02 1.020989586E-07 2.899193663E-10 3.284492763E-03
 7.258599997E-02 1.021069238E-07 2.899283591E-10 3.284698119E-03
 7.483396679E-02 1.021142708E-07 2.899366303E-10 3.284887644E-03
 7.715155184E-02 1.021210210E-07 2.899442630E-10 3.285061801E-03
 7.954090834E-02 1.021272169E-07 2.899512852E-10 3.285221290E-03
 8.200427145E-02 1.021328728E-07 2.899577245E-10 3.285366809E-03
 8.454391360E-02 1.021380385E-07 2.899636919E-10 3.285499290E-03
 8.716221154E-02 1.021427352E-07 2.899691598E-10 3.285619430E-03
 8.986160159E-02 1.021469984E-07 2.899742113E-10 3.285727929E-03
 9.264458716E-02 1.021508638E-07 2.899789020E-10 3.285825951E-03
 9.551376104E-02 1.021543596E-07 2.899832319E-10 3.285913961E-03
 9.847179055E-02 1.021575216E-07 2.899872564E-10 3.285992891E-03
 1.015214324E-01 1.021603708E-07 2.899910312E-10 3.286063438E-03
 1.046655178E-01 1.021629501E-07 2.899945561E-10 3.286126303E-03
 1.079069749E-01 1.021652736E-07 2.899978868E-10 3.286182415E-03
 1.112488210E-01 1.021673768E-07 2.900010232E-10 3.286232473E-03
 1.146941632E-01 1.021692810E-07 2.900039930E-10 3.286276944E-03
 1.182462052E-01 1.021710077E-07 2.900068519E-10 3.286316525E-03
 1.219082549E-01 1.021725851E-07 2.900096274E-10 3.286351683E-03
 1.256837100E-01 1.021740204E-07 2.900122642E-10 3.286383115E-03
 1.295761019E-01 1.021753491E-07 2.900148732E-10 3.286411054E-03
 1.335890293E-01 1.021765712E-07 2.900173990E-10 3.286436200E-03
 1.377262473E-01 1.021777081E-07 2.900198970E-10 3.286458552E-03
 1.419915855E-01 1.021787668E-07 2.900223672E-10 3.286478808E-03
 1.463890225E-01 1.021797615E-07 2.900248097E-10 3.286497435E-03
 1.509226412E-01 1.021807066E-07 2.900272522E-10 3.286514198E-03
 1.555966735E-01 1.021816161E-07 2.900296947E-10 3.286529565E-03
 1.604154557E-01 1.021824900E-07 2.900321372E-10 3.286544001E-03
 1.653834581E-01 1.021833285E-07 2.900346074E-10 3.286557272E-03
 1.705053449E-01 1.021841527E-07 2.900370777E-10 3.286569845E-03
 1.757858396E-01 1.021849627E-07 2.900395757E-10 3.286581952E-03
 1.812298745E-01 1.021857585E-07 2.900421292E-10 3.286593361E-03
 1.868425012E-01 1.021865543E-07 2.900447105E-10 3.286604304E-03
 1.926289499E-01 1.021873359E-07 2.900473473E-10 3.286615014E-03
 1.985946149E-01 1.021881317E-07 2.900500118E-10 3.286625491E-03
 2.047450244E-01 1.021889204E-07 2.900527041E-10 3.286635736E-03
 2.110859156E-01 1.021897233E-07 2.900554796E-10 3.286645981E-03
 2.176231891E-01 1.021905334E-07 2.900582829E-10 3.286656458E-03
 2.243629098E-01 1.021913505E-07 2.900611695E-10 3.286666702E-03
 2.313113511E-01 1.021921818E-07 2.900640839E-10 3.286676947E-03
 2.384749949E-01 1.021930203E-07 2.900670537E-10 3.286687424E-03
 2.458604872E-01 1.021938800E-07 2.900701068E-10 3.286697902E-03
 2.534747124E-01 1.021947469E-07 2.900732154E-10 3.286708612E-03
 2.613247335E-01 1.021956422E-07 2.900764073E-10 3.286719555E-03
 2.694178820E-01 1.021965446E-07 2.900796270E-10 3.286730498E-03
 2.777616680E-01 1.021974683E-07 2.900829299E-10 3.286741907E-03
 2.863638699E-01 1.021984133E-07 2.900862883E-10 3.286753315E-03
 2.952324748E-01 1.021993725E-07 2.900897300E-10 3.286764957E-03
 3.043757379E-01 1.022003460E-07 2.900932272E-10 3.286776831E-03
 3.138021529E-01 1.022013478E-07 2.900968077E-10 3.286788939E-03
 3.235205114E-01 1.022023639E-07 2.901004437E-10 3.286801511E-03
 3.335398436E-01 1.022034013E-07 2.901041352E-10 3.286814084E-03
 3.438694775E-01 1.022044600E-07 2.901079099E-10 3.286826890E-03
 3.545189798E-01 1.022055329E-07 2.901117679E-10 3.286840161E-03
 3.654983342E-01 1.022066272E-07 2.901156815E-10 3.286853665E-03
 3.768177032E-01 1.022077427E-07 2.901196228E-10 3.286867170E-03
 3.884876370E-01 1.022088796E-07 2.901236473E-10 3.286881140E-03
 4.005189836E-01 1.022100307E-07 2.901277552E-10 3.286895109E-03
 4.129229188E-01 1.022112031E-07 2.901319185E-10 3.286909545E-03
 4.257110059E-01 1.022123897E-07 2.901361651E-10 3.286924213E-03
 4.388951659E-01 1.022135976E-07 2.901404395E-10 3.286939114E-03
 4.524875879E-01 1.022148197E-07 2.901447693E-10 3.286954248E-03
 4.665009975E-01 1.022160561E-07 2.901491547E-10 3.286969382E-03
 4.809483886E-01 1.022173066E-07 2.901535956E-10 3.286984982E-03
 4.958432019E-01 1.022185714E-07 2.901580920E-10 3.287000582E-03
 5.111992955E-01 1.022198504E-07 2.901626162E-10 3.287016414E-03
 5.270310044E-01 1.022211435E-07 2.901671681E-10 3.287032479E-03
 5.433530211E-01 1.022224438E-07 2.901717477E-10 3.287048545E-03
 5.601804852E-01 1.022237512E-07 2.901763829E-10 3.287064843E-03
 5.775290728E-01 1.022250657E-07 2.901810459E-10 3.287081374E-03
 5.954149961E-01 1.022263802E-07 2.901857088E-10 3.287097672E-03
 6.138547659E-01 1.022277019E-07 2.901903717E-10 3.287114203E-03
 6.328656673E-01 1.022290306E-07 2.901950347E-10 3.287130967E-03
 6.524653435E-01 1.022303451E-07 2.901996976E-10 3.287147498E-03
 6.726719737E-01 1.022316667E-07 2.902043328E-10 3.287164029E-03
 6.935044527E-01 1.022329812E-07 2.902089402E-10 3.287180560E-03
 7.149820328E-01 1.022342815E-07 2.902135199E-10 3.287197091E-03
 7.371248007E-01 1.022355676E-07 2.902180163E-10 3.287213389E-03
 7.599533200E-01 1.022368394E-07 2.902224849E-10 3.287229687E-03
 7.834888697E-01 1.022380829E-07 2.902268426E-10 3.287245752E-03
 8.077532649E-01 1.022393121E-07 2.902311447E-10 3.287261585E-03
 8.327691555E-01 1.022404987E-07 2.902352525E-10 3.287277184E-03
 8.585597277E-01 1.022416640E-07 2.902393048E-10 3.287292551E-03
 8.851490617E-01 1.022427512E-07 2.902430518E-10 3.287307220E-03
 9.125618339E-01 1.022438809E-07 2.902469098E-10 3.287322121E-03
 9.408236146E-01 1.022444778E-07 2.902488527E-10 3.287331900E-03
 9.699606299E-01 1.022449894E-07 2.902505181E-10 3.287337953E-03
 1.000000000E+00 0.000000000E+00 0.000000000E+00 0.000000000E+00
ZONE T="FUN3D"
 0.000000000E+00 0.000000000E+00 0.000000000E+00 0.000000000E+00
 4.999999987E-07 2.766356566E-08 1.757923407E-08 1.135181301E-04
 1.000465204E-06 2.215031714E-07 7.035538374E-08 4.543471732E-04
 1.501861107E-06 7.487865332E-07 1.584362792E-07 1.023497549E-03
 2.004654107E-06 1.779046443E-06 2.819995473E-07 1.822714927E-03
 2.509312253E-06 3.485240541E-06 4.412923147E-07 2.854465973E-03
 3.016304618E-06 6.044915153E-06 6.366301477E-07 4.121939652E-03
 3.526103228E-06 9.641378711E-06 8.683956594E-07 5.629049148E-03
 4.039182386E-06 1.446488841E-05 1.137036747E-06 7.380442228E-03
 4.556018666E-06 2.071385279E-05 1.443064434E-06 9.381503798E-03
 5.077094102E-06 2.859605593E-05 1.787050223E-06 1.163836848E-02
 5.602892543E-06 3.832989387E-05 2.169623031E-06 1.415793132E-02
 6.133903298E-06 5.014563794E-05 2.591466455E-06 1.694785431E-02
 6.670620678E-06 6.428673078E-05 3.053313549E-06 2.001659013E-02
 7.213543540E-06 8.101107960E-05 3.555944659E-06 2.337338403E-02
 7.763177564E-06 1.005924278E-04 4.100180377E-06 2.702829801E-02
 8.320033885E-06 1.233216753E-04 4.686877674E-06 3.099222668E-02
 8.884630006E-06 1.495082834E-04 5.316924216E-06 3.527691588E-02
 9.457491615E-06 1.794817508E-04 5.991232229E-06 3.989497572E-02
 1.003915168E-05 2.135929244E-04 6.710729849E-06 4.485991970E-02
 1.063015134E-05 2.522156283E-04 7.476357041E-06 5.018617585E-02
 1.123103993E-05 2.957480319E-04 8.289055586E-06 5.588910356E-02
 1.184237772E-05 3.446142655E-04 9.149761354E-06 6.198504567E-02
 1.246473221E-05 3.992658749E-04 1.005939521E-05 6.849133968E-02
 1.309868276E-05 4.601835099E-04 1.101885664E-05 7.542635500E-02
 1.374481872E-05 5.278784083E-04 1.202901058E-05 8.280953020E-02
 1.440374217E-05 6.028941716E-04 1.309068011E-05 9.066140652E-02
 1.507606521E-05 6.858081906E-04 1.420463377E-05 9.900368750E-02
 1.576241448E-05 7.772335666E-04 1.537158096E-05 1.078592464E-01
 1.646342571E-05 8.778208285E-04 1.659215195E-05 1.172522083E-01
 1.717975465E-05 9.882594459E-04 1.786689973E-05 1.272080094E-01
 1.791206523E-05 1.109280041E-03 1.919627721E-05 1.377534270E-01
 1.866104139E-05 1.241655671E-03 2.058064092E-05 1.489166617E-01
 1.942737617E-05 1.386204618E-03 2.202022370E-05 1.607273966E-01
 2.021178625E-05 1.543791266E-03 2.351514377E-05 1.732169092E-01
 2.101499740E-05 1.715329476E-03 2.506538112E-05 1.864181012E-01
 2.183776087E-05 1.901783515E-03 2.667077933E-05 2.003656477E-01
 2.268083881E-05 2.104171319E-03 2.833103099E-05 2.150960267E-01
 2.354501703E-05 2.323566237E-03 3.004567589E-05 2.306477427E-01
 2.443110134E-05 2.561100060E-03 3.181409193E-05 2.470612973E-01
 2.533991210E-05 2.817965811E-03 3.363549331E-05 2.643794715E-01
 2.627229696E-05 3.095420310E-03 3.550892507E-05 2.826473117E-01
 2.722912359E-05 3.394787200E-03 3.743325578E-05 3.019124568E-01
 2.821128328E-05 3.717461135E-03 3.940719398E-05 3.222251236E-01
 2.921968553E-05 4.064910114E-03 4.142926628E-05 3.436384201E-01
 3.025527258E-05 4.438681062E-03 4.349783194E-05 3.662084341E-01
 3.131900667E-05 4.840402398E-03 4.561108290E-05 3.899945021E-01
 3.241187733E-05 5.271789152E-03 4.776705100E-05 4.150593579E-01
 3.353489956E-05 5.734647624E-03 4.996360440E-05 4.414694607E-01
 3.468912109E-05 6.230880506E-03 5.219846935E-05 4.692950249E-01
 3.587561514E-05 6.762492936E-03 5.446921932E-05 4.986105263E-01
 3.709548400E-05 7.331596222E-03 5.677330410E-05 5.294947624E-01
 3.834985910E-05 7.940415293E-03 5.910805339E-05 5.620310903E-01
 3.963991549E-05 8.591296151E-03 6.147068052E-05 5.963078737E-01
 4.096685007E-05 9.286708198E-03 6.385830784E-05 6.324185133E-01
 4.233189611E-05 1.002925355E-02 6.626798131E-05 6.704618931E-01
 4.373632328E-05 1.082167588E-02 6.869666686E-05 7.105425596E-01
 4.518143760E-05 1.166685950E-02 7.114128675E-05 7.527709007E-01
 4.666858513E-05 1.256784424E-02 7.359874871E-05 7.972633243E-01
 4.819914830E-05 1.352809183E-02 7.606592408E-05 8.441593647E-01
 4.977455319E-05 1.455148030E-02 7.853964780E-05 8.936194181E-01
 5.139626228E-05 1.564216428E-02 8.101673302E-05 9.458156824E-01
 5.306578896E-05 1.680459455E-02 8.349393465E-05 1.000932932E+00
 5.478467938E-05 1.804354042E-02 8.596799307E-05 1.059169173E+00
 5.655453788E-05 1.936410926E-02 8.843561227E-05 1.120736957E+00
 5.837701246E-05 2.077176236E-02 9.089345258E-05 1.185863614E+00
 6.025379116E-05 2.227233537E-02 9.333818161E-05 1.254792690E+00
 6.218662747E-05 2.387205511E-02 9.576645243E-05 1.327783823E+00
 6.417731493E-05 2.557756007E-02 9.817491082E-05 1.405114293E+00
 6.622770888E-05 2.739590406E-02 1.005602535E-04 1.487078786E+00
 6.833971565E-05 2.933457121E-02 1.029191772E-04 1.573990107E+00
 7.051529974E-05 3.140147775E-02 1.052484586E-04 1.666178942E+00
 7.275648386E-05 3.360496834E-02 1.075449400E-04 1.763994098E+00
 7.506535621E-05 3.595380858E-02 1.098055582E-04 1.867801428E+00