VARIABLES = "x","y"
ZONE T="DSMA661 Airfoil surface gridpoints AS-CREATED"
# Trailing edge has been made sharp
# Note: some non-smoothness is present
 1.000000000E+00 0.000000000E+00
 9.997505542E-01 -1.663669067E-05
 9.994956638E-01 -3.365054718E-05
 9.992352128E-01 -5.104973345E-05
 9.989690829E-01 -6.884256301E-05
 9.986971535E-01 -8.703750002E-05
 9.984193013E-01 -1.056431601E-04
 9.981354008E-01 -1.246683111E-04
 9.978453239E-01 -1.441218735E-04
 9.975489398E-01 -1.640129207E-04
 9.972461153E-01 -1.843506795E-04
 9.969367145E-01 -2.051445295E-04
 9.966205987E-01 -2.264040025E-04
 9.962976266E-01 -2.481387832E-04
 9.959676541E-01 -2.703587068E-04
 9.956305341E-01 -2.930737588E-04
 9.952861170E-01 -3.162940722E-04
 9.949342499E-01 -3.400299264E-04
 9.945747770E-01 -3.642917438E-04
 9.942075397E-01 -3.890900869E-04
 9.938323761E-01 -4.144356548E-04
 9.934491214E-01 -4.403392781E-04
 9.930576074E-01 -4.668119148E-04
 9.926576629E-01 -4.938646436E-04
 9.922491133E-01 -5.215086570E-04
 9.918317807E-01 -5.497552538E-04
 9.914054840E-01 -5.786158295E-04
 9.909700386E-01 -6.081018664E-04
 9.905252563E-01 -6.382249213E-04
 9.900709456E-01 -6.689966121E-04
 9.896069115E-01 -7.004286026E-04
 9.891329550E-01 -7.325325848E-04
 9.886488740E-01 -7.653202589E-04
 9.881544622E-01 -7.988033106E-04
 9.876495099E-01 -8.329933852E-04
 9.871338034E-01 -8.679020583E-04
 9.866071252E-01 -9.035408017E-04
 9.860692539E-01 -9.399209449E-04
 9.855199643E-01 -9.770536313E-04
 9.849590269E-01 -1.014949767E-03
 9.843862084E-01 -1.053619964E-03
 9.838012712E-01 -1.093074470E-03
 9.832039739E-01 -1.133323092E-03
 9.825940705E-01 -1.174375105E-03
 9.819713110E-01 -1.216239151E-03
 9.813354411E-01 -1.258923106E-03
 9.806862021E-01 -1.302433943E-03
 9.800233309E-01 -1.346777553E-03
 9.793465601E-01 -1.391958543E-03
 9.786556176E-01 -1.437979991E-03
 9.779502269E-01 -1.484843150E-03
 9.772301070E-01 -1.532547079E-03
 9.764949720E-01 -1.581088211E-03
 9.757445315E-01 -1.630459806E-03
 9.749784901E-01 -1.680651265E-03
 9.741965479E-01 -1.731647258E-03
 9.733983998E-01 -1.783426632E-03
 9.725837357E-01 -1.835960974E-03
 9.717522403E-01 -1.889212698E-03
 9.709035932E-01 -1.943132490E-03
 9.700374682E-01 -1.997655832E-03
 9.691535312E-01 -2.052663775E-03
 9.682514466E-01 -2.108075475E-03
 9.673308779E-01 -2.163884230E-03
 9.663914851E-01 -2.220086158E-03
 9.654329230E-01 -2.276681154E-03
 9.644548425E-01 -2.333674044E-03
 9.634568903E-01 -2.391076095E-03
 9.624387084E-01 -2.448907029E-03
 9.613999355E-01 -2.507197470E-03
 9.603402059E-01 -2.565992271E-03
 9.592591507E-01 -2.625354744E-03
 9.581563974E-01 -2.685372368E-03
 9.570315709E-01 -2.746164379E-03
 9.558842937E-01 -2.807892160E-03
 9.547141868E-01 -2.870773629E-03
 9.535208711E-01 -2.935103615E-03
 9.523039693E-01 -3.001283415E-03
 9.510631085E-01 -3.069864901E-03
 9.497979239E-01 -3.141584637E-03
 9.485079539E-01 -3.215536988E-03
 9.471927453E-01 -3.291057155E-03
 9.458519073E-01 -3.368637974E-03
 9.444850696E-01 -3.449176346E-03
 9.430918134E-01 -3.532777931E-03
 9.416716634E-01 -3.618674298E-03
 9.402241589E-01 -3.706410067E-03
 9.387488618E-01 -3.795963273E-03
 9.372453415E-01 -3.887482781E-03
 9.357131535E-01 -3.980937604E-03
 9.341518522E-01 -4.076323176E-03
 9.325609903E-01 -4.173649863E-03
 9.309401189E-01 -4.272936783E-03
 9.292887869E-01 -4.374209123E-03
 9.276065419E-01 -4.477497062E-03
 9.258929298E-01 -4.582835669E-03
 9.241474956E-01 -4.690265648E-03
 9.223697833E-01 -4.799835191E-03
 9.205593366E-01 -4.911603770E-03
 9.187156998E-01 -5.025650023E-03
 9.168384155E-01 -5.142038223E-03
 9.149270207E-01 -5.260740936E-03
 9.129810703E-01 -5.382015911E-03
 9.110001214E-01 -5.506152741E-03
 9.089837103E-01 -5.633090397E-03
 9.069313609E-01 -5.762557672E-03
 9.048426054E-01 -5.894396043E-03
 9.027169851E-01 -6.028557829E-03
 9.005540460E-01 -6.165043546E-03
 8.983533398E-01 -6.303896885E-03
 8.961144233E-01 -6.445199829E-03
 8.938368529E-01 -6.588975352E-03
 8.915201890E-01 -6.735246579E-03
 8.891639962E-01 -6.884038200E-03
 8.867678437E-01 -7.035375720E-03
 8.843313060E-01 -7.189285060E-03
 8.818539633E-01 -7.345792330E-03
 8.793354016E-01 -7.504923679E-03
 8.767752138E-01 -7.666705211E-03
 8.741729996E-01 -7.831162927E-03
 8.715283667E-01 -7.998322691E-03
 8.688409307E-01 -8.168210229E-03
 8.661103160E-01 -8.340851143E-03
 8.633361562E-01 -8.516270962E-03
 8.605180948E-01 -8.694495233E-03
 8.576557859E-01 -8.875549678E-03
 8.547488943E-01 -9.059460445E-03
 8.517970969E-01 -9.246254528E-03
 8.488000821E-01 -9.435953155E-03
 8.457575476E-01 -9.628518489E-03
 8.426692078E-01 -9.823964356E-03
 8.395347922E-01 -1.002232150E-02
 8.363540452E-01 -1.022362100E-02
 8.331267265E-01 -1.042789431E-02
 8.298526117E-01 -1.063517327E-02
 8.265314934E-01 -1.084549014E-02
 8.231631812E-01 -1.105887758E-02
 8.197475029E-01 -1.127536870E-02
 8.162843049E-01 -1.149499712E-02
 8.127734528E-01 -1.171779689E-02
 8.092148322E-01 -1.194380261E-02
 8.056083493E-01 -1.217304939E-02
 8.019539315E-01 -1.240557289E-02
 7.982515268E-01 -1.264139086E-02
 7.945010985E-01 -1.288040821E-02
 7.907026387E-01 -1.312262030E-02
 7.868561645E-01 -1.336804455E-02
 7.829617174E-01 -1.361669789E-02
 7.790193635E-01 -1.386859680E-02
 7.750291942E-01 -1.412375725E-02
 7.709913270E-01 -1.438219471E-02
 7.669059058E-01 -1.464392413E-02
 7.627731013E-01 -1.490895995E-02
 7.585931117E-01 -1.517731602E-02
 7.543661633E-01 -1.544900565E-02
 7.500925104E-01 -1.572404159E-02
 7.457724338E-01 -1.600239734E-02
 7.414062422E-01 -1.628402786E-02
 7.369942760E-01 -1.656892081E-02
 7.325369054E-01 -1.685706193E-02
 7.280345304E-01 -1.714843503E-02
 7.234875816E-01 -1.744302192E-02
 7.188965201E-01 -1.774080242E-02
 7.142618374E-01 -1.804175429E-02
 7.095840563E-01 -1.834585323E-02
 7.048637305E-01 -1.865307288E-02
 7.001014445E-01 -1.896338475E-02
 6.952978142E-01 -1.927675822E-02
 6.904534865E-01 -1.959316056E-02
 6.855691393E-01 -1.991255686E-02
 6.806454815E-01 -2.023491009E-02
 6.756832528E-01 -2.056018102E-02
 6.706832234E-01 -2.088832827E-02
 6.656461939E-01 -2.121930827E-02
 6.605729952E-01 -2.155307528E-02
 6.554644877E-01 -2.188958141E-02
 6.503215613E-01 -2.222877659E-02
 6.451451487E-01 -2.257082051E-02
 6.399362085E-01 -2.291582859E-02
 6.346957053E-01 -2.326358196E-02
 6.294246303E-01 -2.361385226E-02
 6.241240012E-01 -2.396640304E-02
 6.187948613E-01 -2.432098995E-02
 6.134382787E-01 -2.467736109E-02
 6.080553461E-01 -2.503525735E-02
 6.026471793E-01 -2.539441274E-02
 5.972149263E-01 -2.575469469E-02
 5.917598018E-01 -2.611664429E-02
 5.862829988E-01 -2.648015443E-02
 5.807857218E-01 -2.684498800E-02
 5.752691942E-01 -2.721090313E-02
 5.697346575E-01 -2.757765357E-02
 5.641833697E-01 -2.794498909E-02
 5.586166047E-01 -2.831265592E-02
 5.530356511E-01 -2.868039722E-02
 5.474418209E-01 -2.904810719E-02
 5.418364971E-01 -2.941656889E-02
 5.362210088E-01 -2.978558281E-02
 5.305966803E-01 -3.015472058E-02
 5.249648442E-01 -3.052355047E-02
 5.193268402E-01 -3.089163832E-02
 5.136840142E-01 -3.125854837E-02
 5.080377171E-01 -3.162384424E-02
 5.023893031E-01 -3.198708978E-02
 4.967401760E-01 -3.234858440E-02
 4.910918799E-01 -3.271081940E-02
 4.854457424E-01 -3.307292048E-02
 4.798030622E-01 -3.343359599E-02
 4.741651358E-01 -3.379156000E-02
 4.685332569E-01 -3.414553503E-02
 4.629087161E-01 -3.449425486E-02
 4.572928004E-01 -3.483646719E-02
 4.516867929E-01 -3.517093640E-02
 4.460920991E-01 -3.549862794E-02
 4.405103326E-01 -3.582432866E-02
 4.349427220E-01 -3.614652054E-02
 4.293904624E-01 -3.646329964E-02
 4.238547405E-01 -3.677279699E-02
 4.183367353E-01 -3.707318222E-02
 4.128376188E-01 -3.736266712E-02
 4.073585563E-01 -3.763950896E-02
 4.019007070E-01 -3.790201385E-02
 3.964653295E-01 -3.815085391E-02
 3.910539033E-01 -3.839227434E-02
 3.856675397E-01 -3.862516225E-02
 3.803073058E-01 -3.884778985E-02
 3.749742561E-01 -3.905848861E-02
 3.696694328E-01 -3.925565186E-02
 3.643938661E-01 -3.943773719E-02
 3.591485749E-01 -3.960326876E-02
 3.539345664E-01 -3.975083943E-02
 3.487528453E-01 -3.987943240E-02
 3.436045531E-01 -3.999517371E-02
 3.384906676E-01 -4.009963851E-02
 3.334120699E-01 -4.019127576E-02
 3.283696243E-01 -4.026861392E-02
 3.233641790E-01 -4.033026216E-02
 3.183965662E-01 -4.037491154E-02
 3.134676022E-01 -4.040133584E-02
 3.085780876E-01 -4.040839235E-02
 3.037288073E-01 -4.039502238E-02
 2.989205301E-01 -4.036014773E-02
 2.941540310E-01 -4.030117256E-02
 2.894300198E-01 -4.021977217E-02
 2.847491215E-01 -4.011914868E-02
 2.801118948E-01 -4.000236664E-02
 2.755188391E-01 -3.987235198E-02
 2.709704015E-01 -3.973189168E-02
 2.664669822E-01 -3.958363415E-02
 2.620089405E-01 -3.943009012E-02
 2.575965984E-01 -3.927363397E-02
 2.532302461E-01 -3.911650546E-02
 2.489101491E-01 -3.896069668E-02
 2.446366603E-01 -3.880495190E-02
 2.404101217E-01 -3.864756918E-02
 2.362308202E-01 -3.848763712E-02
 2.320990146E-01 -3.832431243E-02
 2.280149370E-01 -3.815681847E-02
 2.239787930E-01 -3.798444359E-02
 2.199907628E-01 -3.780653952E-02
 2.160510012E-01 -3.762251951E-02
 2.121596380E-01 -3.743185651E-02
 2.083167802E-01 -3.723408133E-02
 2.045225119E-01 -3.702878063E-02
 2.007768940E-01 -3.681559487E-02
 1.970799641E-01 -3.659418726E-02
 1.934316934E-01 -3.636502406E-02
 1.898319827E-01 -3.612927529E-02
 1.862807040E-01 -3.588805443E-02
 1.827777052E-01 -3.564240740E-02
 1.793228147E-01 -3.539331508E-02
 1.759158396E-01 -3.514169528E-02
 1.725565661E-01 -3.488840492E-02
 1.692447649E-01 -3.463424259E-02
 1.659801895E-01 -3.437995060E-02
 1.627625774E-01 -3.412621727E-02
 1.595916525E-01 -3.387367923E-02
 1.564671249E-01 -3.362292357E-02
 1.533886920E-01 -3.337449005E-02
 1.503560400E-01 -3.312887322E-02
 1.473689064E-01 -3.288574995E-02
 1.444270749E-01 -3.264408170E-02
 1.415302347E-01 -3.240384291E-02
 1.386780606E-01 -3.216502553E-02
 1.358702169E-01 -3.192762588E-02
 1.331063551E-01 -3.169164405E-02
 1.303861175E-01 -3.145708382E-02
 1.277091350E-01 -3.122395207E-02
 1.250750301E-01 -3.099225870E-02
 1.224834157E-01 -3.076201615E-02
 1.199338965E-01 -3.053323921E-02
 1.174260697E-01 -3.030594471E-02
 1.149595249E-01 -3.008015126E-02
 1.125338450E-01 -2.985587898E-02
 1.101486069E-01 -2.963314934E-02
 1.078033813E-01 -2.941198483E-02
 1.054977346E-01 -2.919240887E-02
 1.032312270E-01 -2.897444544E-02
 1.010034163E-01 -2.875811918E-02
 9.881384663E-02 -2.854353285E-02
 9.666202687E-02 -2.833113155E-02
 9.454749173E-02 -2.812104259E-02
 9.246978186E-02 -2.791331855E-02
 9.042843692E-02 -2.770799429E-02
 8.842299584E-02 -2.750509060E-02
 8.645299831E-02 -2.730461695E-02
 8.451798275E-02 -2.710657320E-02
 8.261748810E-02 -2.691095122E-02
 8.075105425E-02 -2.671773596E-02
 7.891822045E-02 -2.652690606E-02
 7.711852753E-02 -2.633843465E-02
 7.535151776E-02 -2.615228975E-02
 7.361673355E-02 -2.596843428E-02
 7.191371966E-02 -2.578682651E-02
 7.024202332E-02 -2.560741997E-02
 6.860119241E-02 -2.543016314E-02
 6.699077776E-02 -2.525499944E-02
 6.541033421E-02 -2.508186693E-02
 6.385941758E-02 -2.491069736E-02
 6.233758706E-02 -2.474141572E-02
 6.084440788E-02 -2.457393945E-02
 5.937944675E-02 -2.440817662E-02
 5.794227407E-02 -2.424402436E-02
 5.653246866E-02 -2.408136712E-02
 5.514961252E-02 -2.392007288E-02
 5.379329152E-02 -2.375998904E-02
 5.246310343E-02 -2.360093747E-02
 5.115865362E-02 -2.344270580E-02
 4.987955201E-02 -2.328503993E-02
 4.862534655E-02 -2.312828837E-02
 4.739559495E-02 -2.297270403E-02
 4.618990891E-02 -2.281811900E-02
 4.500791222E-02 -2.266435812E-02
 4.384923164E-02 -2.251123797E-02
 4.271349640E-02 -2.235856741E-02
 4.160035254E-02 -2.220615055E-02
 4.050944209E-02 -2.205378580E-02
 3.944041662E-02 -2.190127032E-02
 3.839294125E-02 -2.174840445E-02
 3.736667074E-02 -2.159499315E-02
 3.636128477E-02 -2.144085756E-02
 3.537644936E-02 -2.128583690E-02
 3.441184015E-02 -2.112980064E-02
 3.346713891E-02 -2.097265754E-02
 3.254200806E-02 -2.081436064E-02
 3.163613243E-02 -2.065492250E-02
 3.074916143E-02 -2.049441110E-02
 2.988076427E-02 -2.033296191E-02
 2.903058188E-02 -2.017076739E-02
 2.819825478E-02 -2.000807555E-02
 2.738342111E-02 -1.984517910E-02
 2.658569934E-02 -1.968239830E-02
 2.580472439E-02 -1.952007299E-02
 2.504011488E-02 -1.935854092E-02
 2.429169217E-02 -1.919721705E-02
 2.355940729E-02 -1.903506872E-02
 2.284297632E-02 -1.887203745E-02
 2.214216254E-02 -1.870808101E-02
 2.145670261E-02 -1.854315466E-02
 2.078633642E-02 -1.837721823E-02
 2.013084523E-02 -1.821024673E-02
 1.948996207E-02 -1.804220866E-02
 1.886346632E-02 -1.787309076E-02
 1.825112856E-02 -1.770288506E-02
 1.765269434E-02 -1.753158451E-02
 1.706797039E-02 -1.735920852E-02
 1.649670681E-02 -1.718577005E-02
 1.593868062E-02 -1.701130034E-02
 1.539368984E-02 -1.683584887E-02
 1.486147688E-02 -1.665945915E-02
 1.434185163E-02 -1.648220918E-02
 1.383457568E-02 -1.630417377E-02
 1.333940698E-02 -1.612543871E-02
 1.285615245E-02 -1.594612031E-02
 1.238454841E-02 -1.576632136E-02
 1.192437618E-02 -1.558617293E-02
 1.147540971E-02 -1.540581453E-02
 1.103737995E-02 -1.522537790E-02
 1.061007665E-02 -1.504502699E-02
 1.019324347E-02 -1.486491367E-02
 9.786547393E-03 -1.468535814E-02
 9.389444510E-03 -1.450723543E-02
 9.001806455E-03 -1.433037481E-02
 8.623584026E-03 -1.415446141E-02
 8.254772354E-03 -1.397920242E-02
 7.895328132E-03 -1.380428986E-02
 7.545236330E-03 -1.362943333E-02
 7.204530618E-03 -1.345437401E-02
 6.873171302E-03 -1.327882495E-02
 6.551199783E-03 -1.310255331E-02
 6.238665770E-03 -1.292534859E-02
 5.935527101E-03 -1.274696744E-02
 5.641892540E-03 -1.256727856E-02
 5.357792342E-03 -1.238613651E-02
 5.083175282E-03 -1.220337522E-02
 4.818194994E-03 -1.201900464E-02
 4.562828872E-03 -1.183296554E-02
 4.316995605E-03 -1.164519897E-02
 4.080844994E-03 -1.145587875E-02
 3.854274202E-03 -1.126504657E-02
 3.637133612E-03 -1.107275356E-02
 3.429513080E-03 -1.087932698E-02
 3.231222745E-03 -1.068491090E-02
 3.042007104E-03 -1.048962806E-02
 2.861846055E-03 -1.029389828E-02
 2.690493424E-03 -1.009796486E-02
 2.527598203E-03 -9.901979861E-03
 2.372958239E-03 -9.706298032E-03
 2.226354404E-03 -9.511294661E-03
 2.087388817E-03 -9.317126010E-03
 1.955783078E-03 -9.123823881E-03
 1.832882009E-03 -8.930876112E-03
 1.718537607E-03 -8.738564699E-03
 1.612004378E-03 -8.547210215E-03
 1.512641827E-03 -8.357121576E-03
 1.420039585E-03 -8.168904223E-03
 1.333664780E-03 -7.982805249E-03
 1.253001654E-03 -7.798954119E-03
 1.177590483E-03 -7.617457044E-03
 1.107052600E-03 -7.438486238E-03
 1.041079062E-03 -7.262291864E-03
 9.793153606E-04 -7.088908818E-03
 9.214414883E-04 -6.918358412E-03
 8.671685269E-04 -6.750652935E-03
 8.162400365E-04 -6.585814415E-03
 7.684506311E-04 -6.423955448E-03
 7.235799197E-04 -6.265072452E-03
 6.814224182E-04 -6.109140966E-03
 6.417906280E-04 -5.956133324E-03
 6.045130412E-04 -5.806019163E-03
 5.694334733E-04 -5.658770374E-03
 5.364209632E-04 -5.514413245E-03
 5.053424285E-04 -5.372919211E-03
 4.760722025E-04 -5.234244646E-03
 4.484944261E-04 -5.098345353E-03
 4.225020970E-04 -4.965176726E-03
 3.979962325E-04 -4.834693897E-03
 3.748851378E-04 -4.706851911E-03
 3.530888109E-04 -4.581635470E-03
 3.325290472E-04 -4.459008092E-03
 3.131311612E-04 -4.338921814E-03
 2.948256824E-04 -4.221329115E-03
 2.775479144E-04 -4.106182962E-03
 2.612375402E-04 -3.993436844E-03
 2.458382659E-04 -3.883044803E-03
 2.312975007E-04 -3.774961459E-03
 2.175666961E-04 -3.669146971E-03
 2.046016100E-04 -3.565572232E-03
 1.923586885E-04 -3.464192171E-03
 1.807971296E-04 -3.364962451E-03
 1.698786804E-04 -3.267839484E-03
 1.595674512E-04 -3.172780434E-03
 1.498297458E-04 -3.079743210E-03
 1.406339062E-04 -2.988686465E-03
 1.319501702E-04 -2.899569594E-03
 1.237505409E-04 -2.812352727E-03
 1.160087117E-04 -2.726997220E-03
 1.087005676E-04 -2.643472865E-03
 1.018026741E-04 -2.561742287E-03
 9.529285796E-05 -2.481767814E-03
 8.915021517E-05 -2.403512517E-03
 8.335502943E-05 -2.326940195E-03
 7.788869645E-05 -2.252015371E-03
 7.273365393E-05 -2.178703270E-03
 6.787331664E-05 -2.106969819E-03
 6.329201615E-05 -2.036781627E-03
 5.897494486E-05 -1.968105975E-03
 5.490810397E-05 -1.900910810E-03
 5.107825502E-05 -1.835164726E-03
 4.747289197E-05 -1.770837270E-03
 4.408036633E-05 -1.707902155E-03
 4.088942527E-05 -1.646329643E-03
 3.788941312E-05 -1.586090534E-03
 3.507024138E-05 -1.527156239E-03
 3.242235623E-05 -1.469498768E-03
 2.993670817E-05 -1.413090716E-03
 2.760472350E-05 -1.357905256E-03
 2.541827775E-05 -1.303916124E-03
 2.336967059E-05 -1.251097610E-03
 2.145160247E-05 -1.199424542E-03
 1.965715253E-05 -1.148872284E-03
 1.797975801E-05 -1.099416716E-03
 1.641319477E-05 -1.051034230E-03
 1.495155902E-05 -1.003701717E-03
 1.358925016E-05 -9.573965586E-04
 1.232095461E-05 -9.120966132E-04
 1.114163053E-05 -8.677802107E-04
 1.004652803E-05 -8.244275446E-04
 9.031105830E-06 -7.820180576E-04
 8.091043991E-06 -7.405312252E-04
 7.222245228E-06 -6.999470634E-04
 6.420820796E-06 -6.602460172E-04
 5.683079670E-06 -6.214089514E-04
 5.005518348E-06 -5.834171415E-04
 4.384811197E-06 -5.462522658E-04
 3.817801340E-06 -5.098963962E-04
 3.301492037E-06 -4.743319901E-04
 2.833038535E-06 -4.395418823E-04
 2.409740354E-06 -4.055092772E-04
 2.029033990E-06 -3.722177404E-04
 1.688486002E-06 -3.396511919E-04
 1.385786472E-06 -3.077938977E-04
 1.118742805E-06 -2.766304630E-04
 8.852738560E-07 -2.461458250E-04
 6.834043624E-07 -2.163252457E-04
 5.112596690E-07 -1.871543047E-04
 3.670607222E-07 -1.586188932E-04
 2.491193238E-07 -1.307052066E-04
 1.558336284E-07 -1.033997384E-04
 8.568386965E-08 -7.668927393E-05
 3.722830505E-08 -5.056088376E-05
 9.099365616E-09 -2.500191797E-05
 0.000000000E+00 0.000000000E+00
 9.136088617E-09 2.500217633E-05
 3.753262065E-08 5.056213885E-05
 8.674717692E-08 7.669229330E-05
 1.584429257E-07 1.034053194E-04
 2.543956865E-07 1.307141769E-04
 3.765014797E-07 1.586321115E-04
 5.267845976E-07 1.871726610E-04
 7.074062329E-07 2.163496621E-04
 9.206737049E-07 2.461772561E-04
 1.169050327E-06 2.766698963E-04
 1.455165961E-06 3.078423540E-04
 1.781828303E-06 3.397097258E-04
 2.152034967E-06 3.722874405E-04
 2.568986400E-06 4.055912662E-04
 3.036099716E-06 4.396373177E-04
 3.557023494E-06 4.744420638E-04
 4.135653615E-06 5.100223348E-04
 4.776150218E-06 5.463953304E-04
 5.482955849E-06 5.835786278E-04
 6.260814891E-06 6.215901892E-04
 7.114794365E-06 6.604483703E-04
 8.050306204E-06 7.001719288E-04
 9.073131097E-06 7.407800324E-04
 1.018944403E-05 7.822922683E-04
 1.140585911E-05 8.247292429E-04
 1.272939107E-05 8.681102590E-04
 1.416748870E-05 9.124538852E-04
 1.572817107E-05 9.577812250E-04
 1.742000471E-05 1.004113829E-03
 1.925214147E-05 1.051473702E-03
 2.123435905E-05 1.099883315E-03
 2.337710431E-05 1.149365610E-03
 2.569153953E-05 1.199944009E-03
 2.818959196E-05 1.251642426E-03
 3.088400661E-05 1.304485272E-03
 3.378840281E-05 1.358497468E-03
 3.691733442E-05 1.413704449E-03
 4.028635426E-05 1.470132177E-03
 4.391208270E-05 1.527807148E-03
 4.781228093E-05 1.586756402E-03
 5.200590864E-05 1.647007249E-03
 5.651255493E-05 1.708578652E-03
 6.135370029E-05 1.771498290E-03
 6.655229446E-05 1.835794559E-03
 7.213283908E-05 1.901496377E-03
 7.812148928E-05 1.968633194E-03
 8.454616123E-05 2.037234993E-03
 9.143664566E-05 2.107332296E-03
 9.882472768E-05 2.178956165E-03
 1.067443129E-04 2.252138211E-03
 1.152315598E-04 2.326910595E-03
 1.243247060E-04 2.403303457E-03
 1.340622905E-04 2.481330466E-03
 1.444871912E-04 2.561021794E-03
 1.556452137E-04 2.642409661E-03
 1.675850531E-04 2.725526712E-03
 1.803584501E-04 2.810406007E-03
 1.940203499E-04 2.897081021E-03
 2.086290652E-04 2.985585634E-03
 2.242464591E-04 3.075954233E-03
 2.409349895E-04 3.168204799E-03
 2.587575760E-04 3.262341085E-03
 2.777856008E-04 3.358394793E-03
 2.980943585E-04 3.456397811E-03
 3.197631893E-04 3.556382206E-03
 3.428756045E-04 3.658380221E-03
 3.675194040E-04 3.762424268E-03
 3.937831942E-04 3.868532743E-03
 4.217478649E-04 3.976680438E-03
 4.515093029E-04 4.086890054E-03
 4.831687354E-04 4.199189284E-03
 5.168315359E-04 4.313605853E-03
 5.526072153E-04 4.430167550E-03
 5.906074631E-04 4.548896357E-03
 6.309231599E-04 4.669742325E-03
 6.736623088E-04 4.792705253E-03
 7.189432433E-04 4.917807693E-03
 7.668874147E-04 5.045072464E-03
 8.176192344E-04 5.174522730E-03
 8.712525747E-04 5.306150024E-03
 9.278748511E-04 5.439883890E-03
 9.876071285E-04 5.575738386E-03
 1.050574342E-03 5.713734102E-03
 1.116902826E-03 5.853892622E-03
 1.186710847E-03 5.996218121E-03
 1.260070440E-03 6.140627204E-03
 1.337093419E-03 6.287125234E-03
 1.417899847E-03 6.435735874E-03
 1.502609875E-03 6.586484585E-03
 1.591327576E-03 6.739371533E-03
 1.684108626E-03 6.894322904E-03
 1.781058509E-03 7.051359206E-03
 1.882287745E-03 7.210512855E-03
 1.987906399E-03 7.371818670E-03
 2.097738793E-03 7.535397600E-03
 2.211534114E-03 7.701483823E-03
 2.329434329E-03 7.870097435E-03
 2.451587451E-03 8.041251308E-03
 2.578142039E-03 8.214951491E-03
 2.709213943E-03 8.391153355E-03
 2.844951036E-03 8.569850907E-03
 2.985515602E-03 8.751050284E-03
 3.131073919E-03 8.934755238E-03
 3.281754681E-03 9.120916272E-03
 3.437707489E-03 9.309505973E-03
 3.599108576E-03 9.500523360E-03
 3.766138275E-03 9.693965085E-03
 3.938932476E-03 9.889771000E-03
 4.117649203E-03 1.008790304E-02
 4.302478123E-03 1.028835304E-02
 4.493609498E-03 1.049110679E-02
 4.691176947E-03 1.069608572E-02
 4.895357651E-03 1.090325428E-02
 5.106354096E-03 1.111259736E-02
 5.324354049E-03 1.132407952E-02
 5.549492209E-03 1.153761103E-02
 5.781971357E-03 1.175316487E-02
 6.022006007E-03 1.197071931E-02
 6.269753082E-03 1.219019644E-02
 6.525381832E-03 1.241152812E-02
 6.789113758E-03 1.263468832E-02
 7.061153166E-03 1.285963162E-02
 7.341638996E-03 1.308625666E-02
 7.630790241E-03 1.331452596E-02
 7.928835994E-03 1.354440542E-02
 8.235924890E-03 1.377579632E-02
 8.552256507E-03 1.400863814E-02
 8.878070375E-03 1.424289657E-02
 9.213547014E-03 1.447849165E-02
 9.558859689E-03 1.471533799E-02
 9.914254571E-03 1.495339854E-02
 1.027964444E-02 1.519303248E-02
 1.065458154E-02 1.543515752E-02
 1.103932641E-02 1.567973518E-02
 1.143415286E-02 1.592667310E-02
 1.183930108E-02 1.617585761E-02
 1.225505589E-02 1.642720381E-02
 1.268169192E-02 1.668062235E-02
 1.311944462E-02 1.693600442E-02
 1.356859983E-02 1.719327588E-02
 1.402942351E-02 1.745235645E-02
 1.450214772E-02 1.771315395E-02
 1.498705836E-02 1.797561387E-02
 1.548440388E-02 1.823966913E-02
 1.599442054E-02 1.850525543E-02
 1.651739199E-02 1.877234226E-02
 1.705354534E-02 1.904087909E-02
 1.760313101E-02 1.931083699E-02
 1.816642429E-02 1.958220809E-02
 1.874364140E-02 1.985496492E-02
 1.933504789E-02 2.012911258E-02
 1.994090703E-02 2.040466291E-02
 2.056143984E-02 2.068161647E-02
 2.119692464E-02 2.096000710E-02
 2.184761103E-02 2.123986242E-02
 2.251374060E-02 2.152121318E-02
 2.319559912E-02 2.180411449E-02
 2.389342804E-02 2.208860803E-02
 2.460749696E-02 2.237475191E-02
 2.533790308E-02 2.266307846E-02
 2.608367804E-02 2.295680081E-02
 2.684505045E-02 2.325620525E-02
 2.762253495E-02 2.356084301E-02
 2.841666973E-02 2.387020205E-02
 2.922801891E-02 2.418372553E-02
 3.005714682E-02 2.450082414E-02
 3.090462700E-02 2.482090483E-02
 3.177102283E-02 2.514338918E-02
 3.265686544E-02 2.546772917E-02
 3.356269233E-02 2.579344121E-02
 3.448896783E-02 2.612009178E-02
 3.543617714E-02 2.644733954E-02
 3.640473562E-02 2.677490588E-02
 3.739505027E-02 2.710259431E-02
 3.840752561E-02 2.743028574E-02
 3.944249418E-02 2.775790772E-02
 4.050034441E-02 2.808546585E-02
 4.158139761E-02 2.841299462E-02
 4.268599380E-02 2.874057496E-02
 4.381449423E-02 2.906832540E-02
 4.496720109E-02 2.939637111E-02
 4.614447512E-02 2.972487149E-02
 4.734666553E-02 3.005399416E-02
 4.857409451E-02 3.038390680E-02
 4.982713870E-02 3.071479575E-02
 5.110595948E-02 3.104756988E-02
 5.241059903E-02 3.138367186E-02
 5.374143252E-02 3.172335911E-02
 5.509884697E-02 3.206682276E-02
 5.648323818E-02 3.241421685E-02
 5.789502384E-02 3.276566893E-02
 5.933462797E-02 3.312128115E-02
 6.080247573E-02 3.348113235E-02
 6.229900990E-02 3.384528431E-02
 6.382468008E-02 3.421378044E-02
 6.537993348E-02 3.458664422E-02
 6.696523202E-02 3.496388342E-02
 6.858104616E-02 3.534548818E-02
 7.022784294E-02 3.573142729E-02
 7.190610104E-02 3.612165044E-02
 7.361631043E-02 3.651608621E-02
 7.535895790E-02 3.691463631E-02
 7.713453919E-02 3.731717535E-02
 7.894356557E-02 3.772354842E-02
 8.078654446E-02 3.813356195E-02
 8.266399304E-02 3.854698084E-02
 8.457644943E-02 3.896352332E-02
 8.652444418E-02 3.938284532E-02
 8.850852781E-02 3.980453442E-02
 9.052927572E-02 4.022809528E-02
 9.258725091E-02 4.065292151E-02
 9.468306460E-02 4.107828145E-02
 9.681734167E-02 4.150327436E-02
 9.899071961E-02 4.192678001E-02
 1.012038793E-01 4.234758268E-02
 1.034572173E-01 4.276559223E-02
 1.057511640E-01 4.318084340E-02
 1.080861023E-01 4.359331857E-02
 1.104624504E-01 4.400303958E-02
 1.128805814E-01 4.441005640E-02
 1.153408864E-01 4.481446114E-02
 1.178437239E-01 4.521638268E-02
 1.203894596E-01 4.561599654E-02
 1.229784315E-01 4.601352266E-02
 1.256109806E-01 4.640923375E-02
 1.282874206E-01 4.680345421E-02
 1.310080656E-01 4.719656814E-02
 1.337732023E-01 4.758901888E-02
 1.365831142E-01 4.798131659E-02
 1.394380587E-01 4.837403888E-02
 1.423382832E-01 4.876783719E-02
 1.452840125E-01 4.916343917E-02
 1.482754533E-01 4.956165344E-02
 1.513128878E-01 4.996265629E-02
 1.543972736E-01 5.036128497E-02
 1.575290288E-01 5.075629303E-02
 1.607083891E-01 5.114765571E-02
 1.639355727E-01 5.153537231E-02
 1.672107866E-01 5.191946870E-02
 1.705342111E-01 5.229999723E-02
 1.739060096E-01 5.267703985E-02
 1.773263292E-01 5.305070995E-02
 1.807952913E-01 5.342115329E-02
 1.843129972E-01 5.378855048E-02
 1.878795295E-01 5.415311903E-02
 1.914949450E-01 5.451511460E-02
 1.951592777E-01 5.487483314E-02
 1.988725388E-01 5.523261283E-02
 2.026348373E-01 5.558754796E-02
 2.064464902E-01 5.593614920E-02
 2.103074630E-01 5.627829428E-02
 2.142176761E-01 5.661413072E-02
 2.181770247E-01 5.694384367E-02
 2.221853759E-01 5.726765723E-02
 2.262425702E-01 5.758583616E-02
 2.303484213E-01 5.789868747E-02
 2.345027155E-01 5.820656175E-02
 2.387052112E-01 5.850985467E-02
 2.429556380E-01 5.880900816E-02
 2.472536962E-01 5.910451178E-02
 2.515990772E-01 5.939660464E-02
 2.559916470E-01 5.968242030E-02
 2.604310989E-01 5.996110203E-02
 2.649170380E-01 6.023266467E-02
 2.694490392E-01 6.049714425E-02
 2.740266462E-01 6.075459865E-02
 2.786493715E-01 6.100510821E-02
 2.833166964E-01 6.124877630E-02
 2.880280712E-01 6.148572990E-02
 2.927829148E-01 6.171612004E-02
 2.975806150E-01 6.194012221E-02
 3.024205303E-01 6.215789526E-02
 3.073020112E-01 6.236907887E-02
 3.122243886E-01 6.257299937E-02
 3.171869593E-01 6.276896890E-02
 3.221889861E-01 6.295628066E-02
 3.272296979E-01 6.313420969E-02
 3.323082893E-01 6.330201355E-02
 3.374239205E-01 6.345893321E-02
 3.425757174E-01 6.360419396E-02
 3.477627716E-01 6.373700647E-02
 3.529841278E-01 6.385711864E-02
 3.582387600E-01 6.396624728E-02
 3.635256671E-01 6.406390551E-02
 3.688438228E-01 6.414928246E-02
 3.741921687E-01 6.422155524E-02
 3.795696142E-01 6.427989032E-02
 3.849750371E-01 6.432344503E-02
 3.904072840E-01 6.435136917E-02
 3.958651704E-01 6.436280668E-02
 4.013474815E-01 6.435692172E-02
 4.068529764E-01 6.433367714E-02
 4.123803957E-01 6.429340086E-02
 4.179284620E-01 6.423631362E-02
 4.234958811E-01 6.416266016E-02
 4.290813434E-01 6.407270872E-02
 4.346835251E-01 6.396675046E-02
 4.403010890E-01 6.384509885E-02
 4.459326861E-01 6.370808892E-02
 4.515769534E-01 6.355592422E-02
 4.572324432E-01 6.338636380E-02
 4.628977450E-01 6.319920735E-02
 4.685714751E-01 6.299533544E-02
 4.742522489E-01 6.277565278E-02
 4.799386828E-01 6.254108600E-02
 4.856293945E-01 6.229258143E-02
 4.913230044E-01 6.203110279E-02
 4.970181364E-01 6.175762892E-02
 5.027133984E-01 6.147274290E-02
 5.084072693E-01 6.117451028E-02
 5.140983151E-01 6.086282289E-02
 5.197851295E-01 6.053804808E-02
 5.254663122E-01 6.020056484E-02
 5.311404701E-01 5.985076293E-02
 5.368062190E-01 5.948904199E-02
 5.424621850E-01 5.911581077E-02
 5.481070051E-01 5.873148618E-02
 5.537393109E-01 5.833623586E-02
 5.593577001E-01 5.792959488E-02
 5.649608327E-01 5.751182041E-02
 5.705473890E-01 5.708324107E-02
 5.761160660E-01 5.664419295E-02
 5.816655791E-01 5.619501897E-02
 5.871946625E-01 5.573606824E-02
 5.927020709E-01 5.526769540E-02
 5.981865801E-01 5.479026003E-02
 6.036469655E-01 5.430386973E-02
 6.090819790E-01 5.380814335E-02
 6.144904715E-01 5.330355336E-02
 6.198713252E-01 5.279063686E-02
 6.252234490E-01 5.226992847E-02
 6.305457784E-01 5.174195943E-02
 6.358372768E-01 5.120725679E-02
 6.410969357E-01 5.066634260E-02
 6.463237753E-01 5.011973317E-02
 6.515168368E-01 4.956786138E-02
 6.566750657E-01 4.900999853E-02
 6.617975306E-01 4.844631359E-02
 6.668833797E-01 4.787742402E-02
 6.719317924E-01 4.730393477E-02
 6.769419793E-01 4.672643757E-02
 6.819131821E-01 4.614551039E-02
 6.868446742E-01 4.556171684E-02
 6.917357601E-01 4.497560569E-02
 6.965857758E-01 4.438771048E-02
 7.013940788E-01 4.379846875E-02
 7.061599039E-01 4.320706311E-02
 7.108826259E-01 4.261357255E-02
 7.155617104E-01 4.201854230E-02
 7.201966545E-01 4.142249968E-02
 7.247869860E-01 4.082595386E-02
 7.293322636E-01 4.022939573E-02
 7.338320763E-01 3.963329784E-02
 7.382860432E-01 3.903811428E-02
 7.426938130E-01 3.844428072E-02
 7.470550638E-01 3.785221444E-02
 7.513694817E-01 3.726216173E-02
 7.556365229E-01 3.667248293E-02
 7.598559071E-01 3.608326365E-02
 7.640274811E-01 3.549528147E-02
 7.681511171E-01 3.490927144E-02
 7.722267116E-01 3.432592693E-02
 7.762541854E-01 3.374590050E-02
 7.802334825E-01 3.316980485E-02
 7.841645694E-01 3.259821375E-02
 7.880474343E-01 3.203166311E-02
 7.918820869E-01 3.147065200E-02
 7.956685571E-01 3.091564370E-02
 7.994068948E-01 3.036706680E-02
 8.030970061E-01 2.982420492E-02
 8.067386913E-01 2.928547372E-02
 8.103320618E-01 2.875125345E-02
 8.138772538E-01 2.822193489E-02
 8.173744215E-01 2.769787980E-02
 8.208237360E-01 2.717942195E-02
 8.242253851E-01 2.666686812E-02