TITLE     = "u'v'/Uref^2 profiles CFL3D M=0.875, SSG/LRR-RSM-w2012 model"
VARIABLES = "uv","z-z0"
ZONE T="CFL3D fine grid, Slc: X=-0.25"
 -2.808739623E-07 0.000000000E+00
 -6.621743864E-07 3.188848495E-06
 -1.264048024E-06 6.496906281E-06
 -2.355727247E-06 9.685754776E-06
 -4.069961960E-06 1.290440559E-05
 -5.964444426E-06 1.621246338E-05
 -8.861934475E-06 1.940131187E-05
 -1.285781673E-05 2.259016037E-05
 -1.816706208E-05 2.589821815E-05
 -2.308052535E-05 2.920627594E-05
 -2.994745410E-05 3.239512444E-05
 -3.882348756E-05 3.570318222E-05
 -4.677905963E-05 3.901124001E-05
 -5.727197640E-05 4.228949547E-05
 -7.008219109E-05 4.559755325E-05
 -8.120043640E-05 4.890561104E-05
 -9.534275159E-05 5.221366882E-05
 -1.090144506E-04 5.561113358E-05
 -1.252391230E-04 5.900859833E-05
 -1.428441319E-04 6.228685379E-05
 -1.593515044E-04 6.571412086E-05
 -1.787948568E-04 6.911158562E-05
 -1.967715652E-04 7.259845734E-05
 -2.133065864E-04 7.599592209E-05
 -2.331564901E-04 7.951259613E-05
 -2.530671190E-04 8.299946785E-05
 -2.731202112E-04 8.648633957E-05
 -2.934096265E-04 9.000301361E-05
 -3.116003936E-04 9.360909462E-05
 -3.314621572E-04 9.718537331E-05
 -3.522509942E-04 1.007914543E-04
 -3.702852991E-04 1.044869423E-04
 -3.875588300E-04 1.080930233E-04
 -4.048541014E-04 1.117885113E-04
 -4.227916070E-04 1.155138016E-04
 -4.434267757E-04 1.192986965E-04
 -4.599046079E-04 1.231133938E-04
 -4.758669820E-04 1.268982887E-04
 -4.914665478E-04 1.307129860E-04
 -5.067845923E-04 1.345872879E-04
 -5.220645107E-04 1.386106014E-04
 -5.360973882E-04 1.425147057E-04
 -5.474674981E-04 1.465082169E-04
 -5.612070672E-04 1.505911350E-04
 -5.745706148E-04 1.546144485E-04
 -5.878952215E-04 1.587867737E-04
 -5.980809801E-04 1.628994942E-04
 -6.098833401E-04 1.671016216E-04
 -6.221109070E-04 1.713931561E-04
 -6.318622036E-04 1.757144928E-04
 -6.424929015E-04 1.800060272E-04
 -6.518579321E-04 1.843869686E-04
 -6.606407114E-04 1.888871193E-04
 -6.702428800E-04 1.933872700E-04
 -6.791238557E-04 1.978874207E-04
 -6.871822407E-04 2.025067806E-04
 -6.950849202E-04 2.071857452E-04
 -7.032433059E-04 2.118945122E-04
 -7.112742751E-04 2.166032791E-04
 -7.182828849E-04 2.214908600E-04
 -7.246091845E-04 2.262890339E-04
 -7.317041745E-04 2.312958241E-04
 -7.385765202E-04 2.363026142E-04
 -7.453050930E-04 2.413988113E-04
 -7.515051984E-04 2.464950085E-04
 -7.570599555E-04 2.517104149E-04
 -7.632044144E-04 2.569854259E-04
 -7.684402517E-04 2.622902393E-04
 -7.744427421E-04 2.677142620E-04
 -7.794842240E-04 2.731978893E-04
 -7.843888598E-04 2.787113190E-04
 -7.899030461E-04 2.843141556E-04
 -7.949182764E-04 2.900063992E-04
 -7.996705244E-04 2.957880497E-04
 -8.042092086E-04 3.016889095E-04
 -8.082977729E-04 3.075897694E-04
 -8.128072368E-04 3.136098385E-04
 -8.173397509E-04 3.196895123E-04
 -8.217249997E-04 3.258883953E-04
 -8.257282316E-04 3.322064877E-04
 -8.296289598E-04 3.386139870E-04
 -8.338248008E-04 3.451108932E-04
 -8.377145859E-04 3.516077995E-04
 -8.414649055E-04 3.583133221E-04
 -8.451265167E-04 3.649890423E-04
 -8.487996529E-04 3.718137741E-04
 -8.524351288E-04 3.786981106E-04
 -8.560424321E-04 3.857910633E-04
 -8.594337269E-04 3.929138184E-04
 -8.628127980E-04 4.001855850E-04
 -8.662058390E-04 4.074871540E-04
 -8.694513817E-04 4.149973392E-04
 -8.725860971E-04 4.225075245E-04
 -8.757892065E-04 4.302859306E-04
 -8.789168205E-04 4.380047321E-04
 -8.821116644E-04 4.459917545E-04
 -8.852228057E-04 4.540085793E-04
 -8.883069386E-04 4.622042179E-04
 -8.911874029E-04 4.703998566E-04
 -8.942997665E-04 4.788935184E-04
 -8.971837233E-04 4.873871803E-04
 -9.000449209E-04 4.960894585E-04
 -9.029121138E-04 5.049109459E-04
 -9.057541029E-04 5.137920380E-04
 -9.085672209E-04 5.229115486E-04
 -9.112347034E-04 5.320906639E-04
 -9.140453185E-04 5.413889885E-04
 -9.167901590E-04 5.509853363E-04
 -9.194343584E-04 5.606114864E-04
 -9.220960783E-04 5.703866482E-04
 -9.247424314E-04 5.804002285E-04
 -9.272656753E-04 5.905032158E-04
 -9.299871745E-04 6.008148193E-04
 -9.325030260E-04 6.111860275E-04
 -9.350294713E-04 6.217956543E-04
 -9.375875816E-04 6.326138973E-04
 -9.401416173E-04 6.434917450E-04
 -9.427330224E-04 6.546080112E-04
 -9.451569058E-04 6.658136845E-04
 -9.477013955E-04 6.772875786E-04
 -9.501667228E-04 6.889104843E-04
 -9.526293725E-04 7.007122040E-04
 -9.550021496E-04 7.126927376E-04
 -9.574529249E-04 7.249116898E-04
 -9.598693578E-04 7.373094559E-04
 -9.622634971E-04 7.498860359E-04
 -9.646660765E-04 7.627010345E-04
 -9.670674917E-04 7.756948471E-04
 -9.694184409E-04 7.888972759E-04
 -9.718349320E-04 8.023977280E-04
 -9.742134134E-04 8.159875870E-04
 -9.765027207E-04 8.297860622E-04
 -9.788424941E-04 8.439123631E-04
 -9.811780183E-04 8.581876755E-04
 -9.834645316E-04 8.727014065E-04
 -9.857882978E-04 8.875131607E-04
 -9.881318547E-04 9.025037289E-04
 -9.904500330E-04 9.177923203E-04
 -9.926949861E-04 9.332001209E-04
 -9.949903470E-04 9.489953518E-04
 -9.972768603E-04 9.649097919E-04
 -9.995818837E-04 9.812116623E-04
 -1.001837896E-03 9.976923466E-04
 -1.004113234E-03 1.014500856E-03
 -1.006386243E-03 1.031488180E-03
 -1.008670661E-03 1.048892736E-03
 -1.010905835E-03 1.066505909E-03
 -1.013170462E-03 1.084387302E-03
 -1.015434973E-03 1.102596521E-03
 -1.017644303E-03 1.121103764E-03
 -1.019872725E-03 1.139789820E-03
 -1.022143522E-03 1.159012318E-03
 -1.024348661E-03 1.178413630E-03
 -1.026565558E-03 1.198112965E-03
 -1.028800732E-03 1.218110323E-03
 -1.031042309E-03 1.238495111E-03
 -1.033248496E-03 1.259207726E-03
 -1.035471912E-03 1.280307770E-03
 -1.037625480E-03 1.301586628E-03
 -1.039830153E-03 1.323401928E-03
 -1.042041345E-03 1.345396042E-03
 -1.044226927E-03 1.367896795E-03
 -1.046411460E-03 1.390695572E-03
 -1.048606355E-03 1.413911581E-03
 -1.050766557E-03 1.437485218E-03
 -1.052949112E-03 1.461386681E-03
 -1.055098954E-03 1.485705376E-03
 -1.057270216E-03 1.510590315E-03
 -1.059439150E-03 1.535713673E-03
 -1.061597373E-03 1.561313868E-03
 -1.063737320E-03 1.587212086E-03
 -1.065924531E-03 1.613587141E-03
 -1.068011858E-03 1.640409231E-03
 -1.070170081E-03 1.667797565E-03
 -1.072284766E-03 1.695394516E-03
 -1.074445085E-03 1.723706722E-03
 -1.076546847E-03 1.752287149E-03
 -1.078633242E-03 1.781493425E-03
 -1.080768066E-03 1.810997725E-03
 -1.082823961E-03 1.841187477E-03
 -1.084904303E-03 1.871585846E-03
 -1.086996403E-03 1.902788877E-03
 -1.089053927E-03 1.934289932E-03
 -1.091145561E-03 1.966506243E-03
 -1.093194121E-03 1.999109983E-03
 -1.095225103E-03 2.032309771E-03
 -1.097259112E-03 2.065986395E-03
 -1.099304296E-03 2.100288868E-03
 -1.101328176E-03 2.135097980E-03
 -1.103326213E-03 2.170592546E-03
 -1.105331699E-03 2.206504345E-03
 -1.107318792E-03 2.243191004E-03
 -1.109261764E-03 2.280205488E-03
 -1.111233258E-03 2.318114042E-03
 -1.113216742E-03 2.356499434E-03
 -1.115136431E-03 2.395600080E-03
 -1.117055770E-03 2.435207367E-03
 -1.118993154E-03 2.475708723E-03
 -1.120871748E-03 2.516597509E-03
 -1.122762566E-03 2.558410168E-03
 -1.124619623E-03 2.600699663E-03
 -1.126493560E-03 2.643913031E-03
 -1.128337579E-03 2.687603235E-03
 -1.130159944E-03 2.732187510E-03
 -1.131952042E-03 2.777397633E-03
 -1.133754733E-03 2.823501825E-03
 -1.135527622E-03 2.870112658E-03
 -1.137284329E-03 2.917796373E-03
 -1.139005180E-03 2.965986729E-03
 -1.140728942E-03 3.015190363E-03
 -1.142408117E-03 3.064990044E-03
 -1.144090085E-03 3.115892410E-03
 -1.145738526E-03 3.167301416E-03
 -1.147371833E-03 3.219902515E-03
 -1.148988260E-03 3.273099661E-03
 -1.150574652E-03 3.327399492E-03
 -1.152122160E-03 3.382295370E-03
 -1.153669436E-03 3.438413143E-03
 -1.155183767E-03 3.495186567E-03
 -1.156665152E-03 3.553211689E-03
 -1.158123021E-03 3.611892462E-03
 -1.159562496E-03 3.671795130E-03
 -1.160955988E-03 3.732413054E-03
 -1.162338420E-03 3.794312477E-03
 -1.163687091E-03 3.856986761E-03
 -1.165010734E-03 3.920912743E-03
 -1.166291186E-03 3.985702991E-03
 -1.167551847E-03 4.051804543E-03
 -1.168766292E-03 4.118710756E-03
 -1.169955241E-03 4.186987877E-03
 -1.171116484E-03 4.256099463E-03
 -1.172241755E-03 4.326701164E-03
 -1.173316850E-03 4.398107529E-03
 -1.174367615E-03 4.471004009E-03
 -1.175375190E-03 4.544794559E-03
 -1.176357386E-03 4.620194435E-03
 -1.177292434E-03 4.696488380E-03
 -1.178184291E-03 4.774391651E-03
 -1.179038198E-03 4.853099585E-03
 -1.179854735E-03 4.933595657E-03
 -1.180618419E-03 5.014985800E-03
 -1.181350090E-03 5.098193884E-03
 -1.182032400E-03 5.182296038E-03
 -1.182669075E-03 5.268305540E-03
 -1.183257205E-03 5.355209112E-03
 -1.183803775E-03 5.443990231E-03
 -1.184299472E-03 5.533903837E-03
 -1.184748486E-03 5.625694990E-03
 -1.185143949E-03 5.718499422E-03
 -1.185491215E-03 5.813390017E-03
 -1.185783884E-03 5.909293890E-03
 -1.186024165E-03 6.007313728E-03
 -1.186209149E-03 6.106406450E-03
 -1.186339534E-03 6.207704544E-03
 -1.186413574E-03 6.310105324E-03
 -1.186430221E-03 6.414800882E-03
 -1.186387381E-03 6.520599127E-03
 -1.186284120E-03 6.628811359E-03
 -1.186121488E-03 6.738096476E-03
 -1.185895060E-03 6.849914789E-03
 -1.185606117E-03 6.962895393E-03
 -1.185251516E-03 7.078409195E-03
 -1.184833236E-03 7.195204496E-03
 -1.184344525E-03 7.314592600E-03
 -1.183790504E-03 7.435292006E-03
 -1.183162909E-03 7.558614016E-03
 -1.182468841E-03 7.683306932E-03
 -1.181697822E-03 7.810711861E-03
 -1.180855092E-03 7.939606905E-03
 -1.179935876E-03 8.071303368E-03
 -1.178941922E-03 8.204489946E-03
 -1.177863684E-03 8.340597153E-03
 -1.176712569E-03 8.478194475E-03
 -1.175476238E-03 8.618891239E-03
 -1.174160861E-03 8.761107922E-03
 -1.172752469E-03 8.906394243E-03
 -1.171267009E-03 9.053409100E-03
 -1.169685740E-03 9.203612804E-03
 -1.168026240E-03 9.355485439E-03
 -1.166264527E-03 9.510695934E-03
 -1.164414920E-03 9.667605162E-03
 -1.162458793E-03 9.828001261E-03
 -1.160417916E-03 9.990185499E-03
 -1.158271451E-03 1.015588641E-02
 -1.156028593E-03 1.032361388E-02
 -1.153675956E-03 1.049479842E-02
 -1.151230652E-03 1.066800952E-02
 -1.148661948E-03 1.084500551E-02
 -1.145995455E-03 1.102399826E-02
 -1.143202302E-03 1.120689511E-02
 -1.140309148E-03 1.139178872E-02
 -1.137278276E-03 1.158091426E-02
 -1.134143095E-03 1.177200675E-02
 -1.130861579E-03 1.196739078E-02
 -1.127477968E-03 1.216489077E-02
 -1.123948605E-03 1.236671209E-02
 -1.120301778E-03 1.257079840E-02
 -1.116498024E-03 1.277941465E-02
 -1.112573897E-03 1.299038529E-02
 -1.108487486E-03 1.320588589E-02
 -1.104270690E-03 1.342388988E-02
 -1.099880901E-03 1.364669204E-02
 -1.095364220E-03 1.387190819E-02
 -1.090655220E-03 1.410210133E-02
 -1.085812924E-03 1.433488727E-02
 -1.080774236E-03 1.457279921E-02
 -1.075578504E-03 1.481339335E-02
 -1.070175553E-03 1.505920291E-02
 -1.064624521E-03 1.530781388E-02
 -1.058845199E-03 1.556190848E-02
 -1.052896376E-03 1.581880450E-02
 -1.046712510E-03 1.608139277E-02
 -1.040346804E-03 1.634681225E-02
 -1.033722423E-03 1.661819220E-02
 -1.026906306E-03 1.689249277E-02
 -1.019817661E-03 1.717290282E-02
 -1.012525987E-03 1.745641232E-02
 -1.004929305E-03 1.774621010E-02
 -9.971010732E-04 1.803919673E-02
 -9.889556095E-04 1.833859086E-02
 -9.805770824E-04 1.864141226E-02
 -9.718444780E-04 1.895090938E-02
 -9.628242115E-04 1.926380396E-02
 -9.534291457E-04 1.958361268E-02
 -9.437276749E-04 1.990690827E-02
 -9.336022777E-04 2.023738623E-02
 -9.231453296E-04 2.057158947E-02
 -9.122051997E-04 2.091309428E-02
 -9.008735651E-04 2.125841379E-02
 -8.890018798E-04 2.161139250E-02
 -8.766838582E-04 2.196818590E-02
 -8.637114079E-04 2.233299613E-02
 -8.501957054E-04 2.270179987E-02
 -8.359361673E-04 2.307879925E-02
 -8.210244705E-04 2.345991135E-02
 -8.052075864E-04 2.384939790E-02
 -7.885780069E-04 2.424329519E-02
 -7.709314814E-04 2.464589477E-02
 -7.524163229E-04 2.505290508E-02
 -7.328001666E-04 2.546888590E-02
 -7.122933748E-04 2.588960528E-02
 -6.907266215E-04 2.631950378E-02
 -6.684070686E-04 2.675420046E-02
 -6.451460067E-04 2.719861269E-02
 -6.212434382E-04 2.764779329E-02
 -5.964919110E-04 2.810698748E-02
 -5.712571437E-04 2.857118845E-02
 -5.453074118E-04 2.904570103E-02
 -5.192650715E-04 2.952548862E-02
 -4.935362958E-04 3.001588583E-02
 -4.683998413E-04 3.051170707E-02
 -4.434255243E-04 3.101849556E-02
 -4.187890154E-04 3.153088689E-02
 -3.940749448E-04 3.205469251E-02
 -3.695246705E-04 3.258419037E-02
 -3.447699128E-04 3.312548995E-02
 -3.200190258E-04 3.367269039E-02
 -2.949676127E-04 3.423210979E-02
 -2.698480967E-04 3.479760885E-02
 -2.443926642E-04 3.537571430E-02
 -2.189018851E-04 3.596010804E-02
 -1.931405568E-04 3.655761480E-02
 -1.675319654E-04 3.716149926E-02
 -1.419287582E-04 3.777891397E-02
 -1.169206589E-04 3.840309381E-02
 -9.264427354E-05 3.904119134E-02
 -6.997164746E-05 3.968620300E-02
 -4.952100790E-05 4.034560919E-02
 -3.247725181E-05 4.101219773E-02
 -1.937726847E-05 4.169368744E-02
 -1.049839648E-05 4.238259792E-02
 -5.108473943E-06 4.308688641E-02
 -2.254169431E-06 4.379889369E-02
 -8.938238238E-07 4.452678561E-02
 -3.252099248E-07 4.526248574E-02
 -1.086710100E-07 4.601469636E-02
 -3.445758168E-08 4.677510262E-02
 -1.032982677E-08 4.755249619E-02
 -2.996814130E-09 4.833829403E-02
 -8.236596405E-10 4.914170504E-02
 -2.140991551E-10 4.995378852E-02
 -4.648216881E-11 5.078411102E-02
 -3.198085893E-12 5.162331462E-02
 7.265676342E-12 5.248141289E-02
 9.097032155E-12 5.334869027E-02
 8.786258179E-12 5.423548818E-02
 7.955390686E-12 5.513191223E-02
 6.999878975E-12 5.604830384E-02
 6.026878649E-12 5.697470903E-02
 5.048302922E-12 5.792179704E-02
 4.080095203E-12 5.887919664E-02
 3.112944364E-12 5.985799432E-02
 2.157506378E-12 6.084740162E-02
 1.202511831E-12 6.185901165E-02
 2.579709178E-13 6.288149953E-02
 -6.869188920E-13 6.392690539E-02
 -1.622030093E-12 6.498360634E-02
 -2.558886263E-12 6.606408954E-02
 -3.487359056E-12 6.715619564E-02
 -4.418309468E-12 6.827279925E-02
 -5.341639023E-12 6.940141320E-02
 -6.268248507E-12 7.055538893E-02
 -7.187513171E-12 7.172179222E-02
 -8.110334453E-12 7.291451097E-02
 -9.026310949E-12 7.411989570E-02
 -9.945527041E-12 7.535248995E-02
 -1.085771056E-11 7.659819722E-02
 -1.177304174E-11 7.787209749E-02
 -1.268063692E-11 7.915949821E-02
 -1.359146129E-11 8.047598600E-02
 -1.449421572E-11 8.180660009E-02
 -1.539926173E-11 8.316719532E-02
 -1.629585182E-11 8.454230428E-02
 -1.719412807E-11 8.594840765E-02
 -1.808378794E-11 8.736959100E-02
 -1.897454242E-11 8.882281184E-02
 -1.985589644E-11 9.029150009E-02
 -2.073840058E-11 9.179338813E-02
 -2.161172109E-11 9.331130981E-02
 -2.248564356E-11 9.486350417E-02
 -2.335024361E-11 9.643220901E-02
 -2.421586369E-11 9.803628922E-02
 -2.507228106E-11 9.965759516E-02
 -2.592982253E-11 1.013154984E-01
 -2.677875283E-11 1.029910147E-01
 -2.762938663E-11 1.047044098E-01
 -2.847252989E-11 1.064360142E-01
 -2.931796819E-11 1.082068086E-01
 -3.015640862E-11 1.099964082E-01
 -3.099828033E-11 1.118265092E-01
 -3.183410133E-11 1.136760116E-01
 -3.267398505E-11 1.155675054E-01
 -3.350834540E-11 1.174789071E-01
 -3.434777809E-11 1.194337904E-01
 -3.518239172E-11 1.214092076E-01
 -3.602218523E-11 1.234295070E-01
 -3.685760377E-11 1.254711151E-01
 -3.769892384E-11 1.275591254E-01
 -3.853662875E-11 1.296690702E-01
 -3.938077642E-11 1.318269968E-01
 -4.022161770E-11 1.340076923E-01
 -4.106973095E-11 1.362379193E-01
 -4.191501313E-11 1.384915709E-01
 -4.276794890E-11 1.407964826E-01
 -4.361873363E-11 1.431257129E-01
 -4.447743215E-11 1.455078721E-01
 -4.533357717E-11 1.479151249E-01
 -4.619671659E-11 1.503772140E-01
 -4.705525553E-11 1.528649926E-01
 -4.791821107E-11 1.554095149E-01
 -4.877350954E-11 1.579806805E-01
 -4.962967537E-11 1.606104970E-01
 -5.047458979E-11 1.632677913E-01
 -5.131703396E-11 1.659857035E-01
 -5.214507645E-11 1.687319875E-01
 -5.296785233E-11 1.715409756E-01
 -5.377435303E-11 1.743795276E-01
 -5.457359217E-11 1.772825122E-01
 -5.535535572E-11 1.802160144E-01
 -5.612897647E-11 1.832165122E-01
 -5.688432711E-11 1.862481833E-01
 -5.763043168E-11 1.893491745E-01
 -5.835812389E-11 1.924825907E-01
 -5.907592471E-11 1.956874728E-01
 -5.977485174E-11 1.989259124E-01
 -6.046308593E-11 2.022382021E-01
 -6.113205081E-11 2.055851221E-01
 -6.178994816E-11 2.090085149E-01
 -6.242863865E-11 2.124674916E-01
 -6.305556771E-11 2.160056233E-01
 -6.366284583E-11 2.195805907E-01
 -6.425806415E-11 2.232373953E-01
 -6.483337478E-11 2.269322276E-01
 -6.539581376E-11 2.307115197E-01
 -6.593819935E-11 2.345302105E-01
 -6.646724143E-11 2.384362221E-01
 -6.697623706E-11 2.423828244E-01
 -6.747138265E-11 2.464197874E-01
 -6.794646096E-11 2.504987121E-01
 -6.840725209E-11 2.546709776E-01
 -6.884779552E-11 2.588866949E-01
 -6.927329543E-11 2.631989717E-01
 -6.967838806E-11 2.675560117E-01
 -7.006811797E-11 2.720128298E-01
 -7.043743366E-11 2.765157819E-01
 -7.079071357E-11 2.811220884E-01
 -7.112360700E-11 2.857760787E-01
 -7.144065201E-11 2.905368209E-01
 -7.173718564E-11 2.953469157E-01
 -7.201673979E-11 3.002672791E-01
 -7.227544951E-11 3.052384853E-01
 -7.251638179E-11 3.103240132E-01
 -7.273667779E-11 3.154618740E-01
 -7.293925880E-11 3.207178712E-01
 -7.312159905E-11 3.260282278E-01
 -7.328619656E-11 3.314604759E-01
 -7.343100433E-11 3.369488120E-01
 -7.355766690E-11 3.425632715E-01
 -7.366428995E-11 3.482354879E-01
 -7.375206695E-11 3.540384173E-01
 -7.381979056E-11 3.599010110E-01
 -7.386820322E-11 3.658983707E-01
 -7.389654860E-11 3.719574809E-01
 -7.390536794E-11 3.781561852E-01
 -7.389448081E-11 3.844184875E-01
 -7.386376233E-11 3.908252120E-01
 -7.381346923E-11 3.972975016E-01
 -7.374332395E-11 4.039191008E-01
 -7.365393712E-11 4.106084704E-01
 -7.354421239E-11 4.174522161E-01
 -7.341569019E-11 4.243659973E-01
 -7.326672602E-11 4.314392805E-01
 -7.309913785E-11 4.385849833E-01
 -7.291105913E-11 4.458956718E-01
 -7.270489766E-11 4.532811046E-01
 -7.247806522E-11 4.608370066E-01
 -7.223347614E-11 4.684700966E-01
 -7.196830631E-11 4.762796760E-01
 -7.168601823E-11 4.841688275E-01
 -7.138325347E-11 4.922404289E-01
 -7.106377292E-11 5.003942251E-01
 -7.072371855E-11 5.087367296E-01
 -7.036767696E-11 5.171641111E-01
 -6.999131136E-11 5.257865191E-01
 -6.959966631E-11 5.344966054E-01
 -6.918797479E-11 5.434083939E-01
 -6.876165609E-11 5.524107218E-01
 -6.831567950E-11 5.616216063E-01
 -6.785616513E-11 5.709260702E-01
 -6.737741615E-11 5.804461241E-01
 -6.688595511E-11 5.900626779E-01
 -6.637589783E-11 5.999022722E-01
 -6.585406526E-11 6.098415852E-01
 -6.531398339E-11 6.200113893E-01
 -6.476333358E-11 6.302839518E-01
 -6.419512144E-11 6.407959461E-01
 -6.361693117E-11 6.514129639E-01
 -6.302194183E-11 6.622769833E-01
 -6.241814704E-11 6.732510328E-01
 -6.179821238E-11 6.844799519E-01
 -6.117038820E-11 6.958220005E-01
 -6.052679885E-11 7.074279785E-01
 -5.987649959E-11 7.191510201E-01
 -5.921158008E-11 7.311459780E-01
 -5.854097762E-11 7.432630062E-01
 -5.785621635E-11 7.556610107E-01
 -5.716625784E-11 7.681839466E-01
 -5.646305298E-11 7.809979916E-01
 -5.575644807E-11 7.939419746E-01
 -5.503729417E-11 8.071869612E-01
 -5.431512531E-11 8.205649853E-01
 -5.358129218E-11 8.342540264E-01
 -5.284589086E-11 8.480809927E-01
 -5.209950180E-11 8.622299433E-01
 -5.135241538E-11 8.765209913E-01
 -5.059498306E-11 8.911459446E-01
 -4.983788035E-11 9.059170485E-01
 -4.907166687E-11 9.210319519E-01
 -4.830645606E-11 9.362989664E-01
 -4.753277633E-11 9.519220591E-01
 -4.676152174E-11 9.677020311E-01
 -4.598285641E-11 9.838500023E-01
 -4.520688685E-11 1.000159025E+00
 -4.442431839E-11 1.016849041E+00
 -4.364593409E-11 1.033705950E+00
 -4.286152336E-11 1.050956964E+00
 -4.208223700E-11 1.068379998E+00
 -4.129766321E-11 1.086210012E+00
 -4.051878277E-11 1.104218006E+00
 -3.973586737E-11 1.122648001E+00
 -3.895957862E-11 1.141260982E+00
 -3.818007369E-11 1.160308957E+00
 -3.740786500E-11 1.179546952E+00
 -3.663303341E-11 1.199234962E+00
 -3.586620931E-11 1.219120026E+00
 -3.509771987E-11 1.239469051E+00
 -3.433829263E-11 1.260020971E+00
 -3.357770659E-11 1.281054974E+00
 -3.282663724E-11 1.302296996E+00
 -3.207552279E-11 1.324036956E+00
 -3.133470566E-11 1.345993042E+00
 -3.059440895E-11 1.368463993E+00
 -2.986481548E-11 1.391157031E+00
 -2.913655428E-11 1.414383054E+00
 -2.841966072E-11 1.437839031E+00
 -2.770468403E-11 1.461845040E+00
 -2.700164745E-11 1.486088991E+00
 -2.630144540E-11 1.510902047E+00
 -2.561355815E-11 1.535959959E+00
 -2.492890963E-11 1.561607003E+00
 -2.425703909E-11 1.587507010E+00
 -2.358916708E-11 1.614016056E+00
 -2.293462295E-11 1.640785933E+00
 -2.228454747E-11 1.668185949E+00
 -2.164800110E-11 1.695856094E+00
 -2.101657737E-11 1.724175930E+00
 -2.039889438E-11 1.752775908E+00
 -1.978681281E-11 1.782048941E+00
 -1.918886404E-11 1.811609030E+00
 -1.859691741E-11 1.841866016E+00
 -1.801929439E-11 1.872420073E+00
 -1.744817138E-11 1.903693914E+00
 -1.689130606E-11 1.935275078E+00
 -1.634141260E-11 1.967600107E+00
 -1.580599193E-11 2.000241995E+00
 -1.527782588E-11 2.033653975E+00
 -1.476417946E-11 2.067393064E+00
 -1.425792470E-11 2.101928949E+00
 -1.376615748E-11 2.136801958E+00
 -1.328219652E-11 2.172497988E+00
 -1.281266499E-11 2.208544016E+00
 -1.235110972E-11 2.245440960E+00
 -1.190383903E-11 2.282697916E+00
 -1.146466862E-11 2.320836067E+00
 -1.103965617E-11 2.359344959E+00
 -1.062284288E-11 2.398765087E+00
 -1.021992907E-11 2.438569069E+00
 -9.825335857E-12 2.479315042E+00
 -9.785131039E-12 2.483556032E+00
 -9.444427011E-12 2.520457029E+00
 -9.071777184E-12 2.562572956E+00
 -8.712524625E-12 2.605098963E+00
 -8.361533688E-12 2.648632050E+00
 -8.023600881E-12 2.692586899E+00
 -7.693851632E-12 2.737584114E+00
 -7.376740711E-12 2.783016920E+00
 -7.067711000E-12 2.829528093E+00
 -6.770912823E-12 2.876488924E+00
 -6.481951260E-12 2.924562931E+00
 -6.204675662E-12 2.973104000E+00
 -5.934927029E-12 3.022795916E+00
 -5.676208201E-12 3.072968960E+00
 -5.424375792E-12 3.124331951E+00
 -5.182737919E-12 3.176192045E+00
 -4.946220950E-12 3.229284048E+00
 -4.719306543E-12 3.282887936E+00
 -4.490397637E-12 3.337765932E+00
 -4.274810107E-12 3.393173933E+00
 -4.020782405E-12 3.449898005E+00
 -3.819735760E-12 3.507169008E+00
 -3.424112122E-12 3.565802097E+00
ZONE T="CFL3D fine grid, Slc: X=0.688"
 -2.140718358E-08 0.000000000E+00
 -4.342674842E-08 2.920627594E-06
 -8.065691048E-08 5.900859833E-06
 -1.338216293E-07 8.821487427E-06
 -2.100948109E-07 1.171231270E-05
 -3.161481743E-07 1.460313797E-05
 -4.600194643E-07 1.752376556E-05
 -6.549506679E-07 2.050399780E-05
 -8.998355270E-07 2.339482307E-05
 -1.221871571E-06 2.640485764E-05
 -1.609232527E-06 2.929568291E-05
 -2.108299896E-06 3.230571747E-05
 -2.686695098E-06 3.519654274E-05
 -3.413882041E-06 3.820657730E-05
 -4.286430794E-06 4.121661186E-05
 -5.256940312E-06 4.419684410E-05
 -6.364666206E-06 4.720687866E-05
 -7.747999007E-06 5.021691322E-05
 -9.341986697E-06 5.331635475E-05
 -1.074968895E-05 5.629658699E-05
 -1.284247264E-05 5.939602852E-05
 -1.522713228E-05 6.249547005E-05
 -1.791412978E-05 6.559491158E-05
 -2.066703746E-05 6.872415543E-05
 -2.335859062E-05 7.182359695E-05
 -2.706451778E-05 7.501244545E-05
 -3.083102274E-05 7.811188698E-05
 -3.465135887E-05 8.141994476E-05
 -3.949891834E-05 8.460879326E-05
 -4.460007040E-05 8.779764175E-05
 -4.962210733E-05 9.110569954E-05
 -5.588912609E-05 9.441375732E-05
 -6.174240843E-05 9.772181511E-05
 -6.840856804E-05 1.010000706E-04
 -7.550710870E-05 1.043975353E-04
 -8.277840971E-05 1.077950001E-04
 -9.109170060E-05 1.112222672E-04
 -9.914768452E-05 1.147091389E-04
 -1.079492285E-04 1.181960106E-04
 -1.182603737E-04 1.217126846E-04
 -1.271991350E-04 1.251995564E-04
 -1.370466052E-04 1.288056374E-04
 -1.487518166E-04 1.324117184E-04
 -1.596745133E-04 1.361072063E-04
 -1.714376995E-04 1.398026943E-04
 -1.828315872E-04 1.434981823E-04
 -1.949037542E-04 1.473128796E-04
 -2.072843927E-04 1.510977745E-04
 -2.203674667E-04 1.550018787E-04
 -2.337514452E-04 1.589059830E-04
 -2.465285361E-04 1.628100872E-04
 -2.586283954E-04 1.668035984E-04
 -2.723802172E-04 1.707971096E-04
 -2.874296042E-04 1.749098301E-04
 -3.021565790E-04 1.790225506E-04
 -3.158038598E-04 1.831948757E-04
 -3.300735261E-04 1.873970032E-04
 -3.449491051E-04 1.917183399E-04
 -3.594726440E-04 1.960098743E-04
 -3.752042248E-04 2.004206181E-04
 -3.895292466E-04 2.048015594E-04
 -4.042593937E-04 2.093017101E-04
 -4.208392929E-04 2.139210701E-04
 -4.360426974E-04 2.185106277E-04
 -4.515589098E-04 2.231001854E-04
 -4.669097543E-04 2.278089523E-04
 -4.826506483E-04 2.326071262E-04
 -4.987374996E-04 2.374947071E-04
 -5.142214941E-04 2.424120903E-04
 -5.284532090E-04 2.472996712E-04
 -5.453667836E-04 2.523958683E-04
 -5.627561477E-04 2.575218678E-04
 -5.779034109E-04 2.627074718E-04
 -5.952595966E-04 2.680122852E-04
 -6.112794508E-04 2.733170986E-04
 -6.284154952E-04 2.787113190E-04
 -6.454804097E-04 2.841949463E-04
 -6.622170913E-04 2.897083759E-04
 -6.789031322E-04 2.953112125E-04
 -6.963230553E-04 3.011226654E-04
 -7.138132933E-04 3.069043159E-04
 -7.313750102E-04 3.128051758E-04
 -7.485732203E-04 3.187060356E-04
 -7.659206167E-04 3.248155117E-04
 -7.845961954E-04 3.308951855E-04
 -8.033934282E-04 3.371238708E-04
 -8.211491513E-04 3.434121609E-04
 -8.392820018E-04 3.499090672E-04
 -8.594858809E-04 3.564059734E-04
 -8.789270069E-04 3.630220890E-04
 -8.980394341E-04 3.696978092E-04
 -9.177644970E-04 3.765225410E-04
 -9.371614433E-04 3.834068775E-04
 -9.559760219E-04 3.904104233E-04
 -9.770663455E-04 3.975033760E-04
 -9.967852384E-04 4.048049450E-04
 -1.018640934E-03 4.121065140E-04
 -1.039179391E-03 4.194974899E-04
 -1.060129493E-03 4.270970821E-04
 -1.081679482E-03 4.348158836E-04
 -1.103719464E-03 4.426240921E-04
 -1.126344316E-03 4.505217075E-04
 -1.149044372E-03 4.585087299E-04
 -1.171395299E-03 4.667043686E-04
 -1.193799893E-03 4.750192165E-04
 -1.217246987E-03 4.834234715E-04
 -1.241947757E-03 4.920065403E-04
 -1.265916624E-03 5.007088184E-04
 -1.290019951E-03 5.095005035E-04
 -1.314773457E-03 5.185008049E-04
 -1.339652110E-03 5.276203156E-04
 -1.365339500E-03 5.367994308E-04
 -1.390344230E-03 5.462169647E-04
 -1.416246174E-03 5.557239056E-04
 -1.443839166E-03 5.654096603E-04
 -1.469640061E-03 5.753040314E-04
 -1.497483579E-03 5.853176117E-04
 -1.525600324E-03 5.955100060E-04
 -1.553220674E-03 6.058216095E-04
 -1.581261167E-03 6.163120270E-04
 -1.611454878E-03 6.269216537E-04
 -1.639518188E-03 6.377995014E-04
 -1.669730409E-03 6.487071514E-04
 -1.700394670E-03 6.599128246E-04
 -1.731021330E-03 6.712973118E-04
 -1.761883148E-03 6.829202175E-04
 -1.793160685E-03 6.945133209E-04
 -1.826002379E-03 7.065236568E-04
 -1.858808100E-03 7.186233997E-04
 -1.891490072E-03 7.309019566E-04
 -1.924330718E-03 7.432997227E-04
 -1.958593028E-03 7.561147213E-04
 -1.993560931E-03 7.690191269E-04
 -2.028967720E-03 7.821023464E-04
 -2.064275555E-03 7.954239845E-04
 -2.100367332E-03 8.090138435E-04
 -2.136952709E-03 8.227229118E-04
 -2.174598398E-03 8.368194103E-04
 -2.211493207E-03 8.509159088E-04
 -2.249892335E-03 8.655190468E-04
 -2.288389718E-03 8.801221848E-04
 -2.328516217E-03 8.951127529E-04
 -2.367854118E-03 9.102225304E-04
 -2.409051405E-03 9.257197380E-04
 -2.449338092E-03 9.413063526E-04
 -2.491113264E-03 9.573101997E-04
 -2.534061670E-03 9.734034538E-04
 -2.577250358E-03 9.899139404E-04
 -2.620772691E-03 1.006603241E-03
 -2.664860105E-03 1.023620367E-03
 -2.709038556E-03 1.040905714E-03
 -2.754263114E-03 1.058518887E-03
 -2.800581511E-03 1.076310873E-03
 -2.848232631E-03 1.094520092E-03
 -2.895857207E-03 1.112908125E-03
 -2.943529980E-03 1.131713390E-03
 -2.991877496E-03 1.150697470E-03
 -3.042106982E-03 1.170098782E-03
 -3.091975581E-03 1.189708710E-03
 -3.142819973E-03 1.209795475E-03
 -3.193406854E-03 1.230120659E-03
 -3.245806554E-03 1.250922680E-03
 -3.298764350E-03 1.271814108E-03
 -3.353359411E-03 1.293212175E-03
 -3.407676471E-03 1.314908266E-03
 -3.462916939E-03 1.337021589E-03
 -3.518295940E-03 1.359403133E-03
 -3.574938048E-03 1.382321119E-03
 -3.632307285E-03 1.405417919E-03
 -3.690132871E-03 1.429021358E-03
 -3.748483257E-03 1.452922821E-03
 -3.807801055E-03 1.477420330E-03
 -3.867532359E-03 1.502096653E-03
 -3.928760067E-03 1.527309418E-03
 -3.990108147E-03 1.552820206E-03
 -4.052432720E-03 1.578897238E-03
 -4.115185235E-03 1.605302095E-03
 -4.178944509E-03 1.632213593E-03
 -4.242355470E-03 1.659512520E-03
 -4.307615105E-03 1.687318087E-03
 -4.374222364E-03 1.715511084E-03
 -4.440651275E-03 1.744300127E-03
 -4.507827573E-03 1.773416996E-03
 -4.575361963E-03 1.803100109E-03
 -4.642970860E-03 1.833200455E-03
 -4.711898044E-03 1.863896847E-03
 -4.782247357E-03 1.895010471E-03
 -4.852539860E-03 1.926809549E-03
 -4.921955522E-03 1.958906651E-03
 -4.993689712E-03 1.991808414E-03
 -5.066362210E-03 2.024918795E-03
 -5.138650071E-03 2.058923244E-03
 -5.211181473E-03 2.093195915E-03
 -5.284646526E-03 2.128303051E-03
 -5.358361639E-03 2.163708210E-03
 -5.431653000E-03 2.200007439E-03
 -5.505823530E-03 2.236604691E-03
 -5.581520963E-03 2.274096012E-03
 -5.655591376E-03 2.312004566E-03
 -5.732082762E-03 2.350717783E-03
 -5.806940142E-03 2.389818430E-03
 -5.882550497E-03 2.429902554E-03
 -5.957539193E-03 2.470314503E-03
 -6.032987498E-03 2.511709929E-03
 -6.108593196E-03 2.553522587E-03
 -6.183837540E-03 2.596199512E-03
 -6.258253008E-03 2.639502287E-03
 -6.333650090E-03 2.683699131E-03
 -6.407429930E-03 2.728313208E-03
 -6.481108721E-03 2.774000168E-03
 -6.553797517E-03 2.820104361E-03
 -6.626722403E-03 2.867400646E-03
 -6.697244477E-03 2.914994955E-03
 -6.768160965E-03 2.963900566E-03
 -6.837291643E-03 3.013223410E-03
 -6.906104740E-03 3.063619137E-03
 -6.972530391E-03 3.114521503E-03
 -7.038275711E-03 3.166705370E-03
 -7.101944182E-03 3.219306469E-03
 -7.163470611E-03 3.273218870E-03
 -7.222979795E-03 3.327608109E-03
 -7.280743681E-03 3.383398056E-03
 -7.335538510E-03 3.439605236E-03
 -7.388538215E-03 3.497213125E-03
 -7.437772583E-03 3.555297852E-03
 -7.484265603E-03 3.614813089E-03
 -7.526981644E-03 3.674894571E-03
 -7.566197310E-03 3.736406565E-03
 -7.601533085E-03 3.798514605E-03
 -7.632446475E-03 3.862112761E-03
 -7.658455055E-03 3.926306963E-03
 -7.679469418E-03 3.992021084E-03
 -7.694745436E-03 4.058420658E-03
 -7.704095915E-03 4.126310349E-03
 -7.706841920E-03 4.194915295E-03
 -7.702376228E-03 4.265099764E-03