TITLE     = "u'v'/Uref^2 profiles CFL3D M=0.875, SA-RC model"
VARIABLES = "uv","z-z0"
ZONE T="CFL3D, Slc: X=-0.25"
 0.000000000E+00 0.000000000E+00
 0.000000000E+00 3.218650818E-06
 0.000000000E+00 6.467103958E-06
 0.000000000E+00 9.685754776E-06
 0.000000000E+00 1.293420792E-05
 -8.590651523E-10 1.615285873E-05
 -8.852746980E-09 1.940131187E-05
 -2.108827246E-08 2.264976501E-05
 -7.598175955E-08 2.589821815E-05
 -1.446827298E-07 2.917647362E-05
 -3.270150160E-07 3.245472908E-05
 -5.390543834E-07 3.573298454E-05
 -9.703097703E-07 3.901124001E-05
 -1.461365287E-06 4.231929779E-05
 -2.318661245E-06 4.562735558E-05
 -3.284171498E-06 4.896521568E-05
 -4.781728421E-06 5.230307579E-05
 -6.436311196E-06 5.564093590E-05
 -8.836919733E-06 5.900859833E-05
 -1.150163007E-05 6.240606308E-05
 -1.512221661E-05 6.580352783E-05
 -1.912976404E-05 6.923079491E-05
 -2.432933798E-05 7.268786430E-05
 -3.003916208E-05 7.614493370E-05
 -3.711887621E-05 7.963180542E-05
 -4.486450416E-05 8.311867714E-05
 -5.409030200E-05 8.663535118E-05
 -6.432062219E-05 9.021162987E-05
 -7.601168181E-05 9.378790855E-05
 -8.867926226E-05 9.736418724E-05
 -1.029908526E-04 1.010000706E-04
 -1.185303117E-04 1.046657562E-04
 -1.354096894E-04 1.083314419E-04
 -1.535776682E-04 1.120567322E-04
 -1.727707422E-04 1.157820225E-04
 -1.932512823E-04 1.195669174E-04
 -2.145777398E-04 1.233518124E-04
 -2.369051945E-04 1.271963120E-04
 -2.599822183E-04 1.310706139E-04
 -2.835322521E-04 1.349747181E-04
 -3.075821442E-04 1.389086246E-04
 -3.318041854E-04 1.429021358E-04
 -3.562992497E-04 1.469254494E-04
 -3.803254513E-04 1.509785652E-04
 -4.046859394E-04 1.550912857E-04
 -4.280692374E-04 1.592338085E-04
 -4.515281471E-04 1.634061337E-04
 -4.738551506E-04 1.676380634E-04
 -4.962519160E-04 1.719295979E-04
 -5.171683151E-04 1.762509346E-04
 -5.378348287E-04 1.806020737E-04
 -5.571648944E-04 1.850128174E-04
 -5.762094515E-04 1.894831657E-04
 -5.939336261E-04 1.940131187E-04
 -6.111288676E-04 1.985728741E-04
 -6.272989558E-04 2.032220364E-04
 -6.428160123E-04 2.079010010E-04
 -6.572952843E-04 2.126097679E-04
 -6.711810711E-04 2.174079418E-04
 -6.842166767E-04 2.222657204E-04
 -6.965773064E-04 2.271831036E-04
 -7.083268720E-04 2.321600914E-04
 -7.192972698E-04 2.371966839E-04
 -7.297835546E-04 2.422928810E-04
 -7.395158755E-04 2.474486828E-04
 -7.489653071E-04 2.526938915E-04
 -7.576012285E-04 2.579689026E-04
 -7.661077543E-04 2.633631229E-04
 -7.738288259E-04 2.687871456E-04
 -7.814669516E-04 2.743005753E-04
 -7.883967482E-04 2.798736095E-04
 -7.953549502E-04 2.855658531E-04
 -8.015845087E-04 2.912878990E-04
 -8.078593528E-04 2.970993519E-04
 -8.135273820E-04 3.030002117E-04
 -8.192337700E-04 3.089904785E-04
 -8.244373021E-04 3.150701523E-04
 -8.296219166E-04 3.212094307E-04
 -8.344011148E-04 3.274381161E-04
 -8.391649462E-04 3.337562084E-04
 -8.435985073E-04 3.401637077E-04
 -8.480133838E-04 3.466904163E-04
 -8.521311102E-04 3.532767296E-04
 -8.562044241E-04 3.599524498E-04
 -8.600854198E-04 3.667473793E-04
 -8.639007574E-04 3.736317158E-04
 -8.675527642E-04 3.806352615E-04
 -8.711231058E-04 3.876984119E-04
 -8.745851810E-04 3.949105740E-04
 -8.779737982E-04 4.022121429E-04
 -8.812519955E-04 4.096031189E-04
 -8.844700060E-04 4.171133041E-04
 -8.876142674E-04 4.247426987E-04
 -8.906939765E-04 4.324913025E-04
 -8.937170496E-04 4.403591156E-04
 -8.966723108E-04 4.483461380E-04
 -8.995747194E-04 4.564225674E-04
 -9.024234605E-04 4.646480083E-04
 -9.052419919E-04 4.729926586E-04
 -9.079985903E-04 4.814565182E-04
 -9.107477963E-04 4.900693893E-04
 -9.134284919E-04 4.988014698E-04
 -9.161145426E-04 5.076825619E-04
 -9.187226533E-04 5.166828632E-04
 -9.213465964E-04 5.258321762E-04
 -9.238956845E-04 5.351006985E-04
 -9.264789987E-04 5.445480347E-04
 -9.289814625E-04 5.541145802E-04
 -9.315247298E-04 5.638599396E-04
 -9.339901735E-04 5.737245083E-04
 -9.364975267E-04 5.837678909E-04
 -9.389313054E-04 5.939602852E-04
 -9.414000669E-04 6.043016911E-04
 -9.438141133E-04 6.148219109E-04
 -9.462622693E-04 6.254911423E-04
 -9.486438939E-04 6.363093853E-04
 -9.510744712E-04 6.473362446E-04
 -9.534445708E-04 6.585121155E-04
 -9.558633901E-04 6.698966026E-04
 -9.582190542E-04 6.814301014E-04
 -9.606170352E-04 6.931424141E-04
 -9.629696724E-04 7.050633430E-04
 -9.653610177E-04 7.171630859E-04
 -9.677074268E-04 7.294714451E-04
 -9.700917290E-04 7.419586182E-04
 -9.724374395E-04 7.546544075E-04
 -9.748215089E-04 7.675588131E-04
 -9.771659970E-04 7.806718349E-04
 -9.795431979E-04 7.939636707E-04
 -9.818912949E-04 8.074939251E-04
 -9.842739673E-04 8.212327957E-04
 -9.866221808E-04 8.351802826E-04
 -9.890075307E-04 8.493661880E-04
 -9.913628455E-04 8.637905121E-04
 -9.937505238E-04 8.784234524E-04
 -9.961120086E-04 8.932948112E-04
 -9.985117940E-04 9.084343910E-04
 -1.000880846E-03 9.237825871E-04
 -1.003286685E-03 9.393990040E-04
 -1.005666680E-03 9.552538395E-04
 -1.008081832E-03 9.713768959E-04
 -1.010476262E-03 9.877681732E-04
 -1.012902474E-03 1.004427671E-03
 -1.015307731E-03 1.021355391E-03
 -1.017744420E-03 1.038551331E-03
 -1.020161551E-03 1.056015491E-03
 -1.022611395E-03 1.073777676E-03
 -1.025041216E-03 1.091808081E-03
 -1.027505961E-03 1.110166311E-03
 -1.029951032E-03 1.128792763E-03
 -1.032425789E-03 1.147717237E-03
 -1.034888672E-03 1.166969538E-03
 -1.037378446E-03 1.186519861E-03
 -1.039855997E-03 1.206398010E-03
 -1.042362186E-03 1.226603985E-03
 -1.044858363E-03 1.247137785E-03
 -1.047376427E-03 1.267999411E-03
 -1.049891580E-03 1.289218664E-03
 -1.052426756E-03 1.310795546E-03
 -1.054959488E-03 1.332700253E-03
 -1.057506772E-03 1.354962587E-03
 -1.060058712E-03 1.377582550E-03
 -1.062620548E-03 1.400589943E-03
 -1.065190067E-03 1.423954964E-03
 -1.067764708E-03 1.447707415E-03
 -1.070356928E-03 1.471877098E-03
 -1.072944375E-03 1.496404409E-03
 -1.075555687E-03 1.521378756E-03
 -1.078160014E-03 1.546740532E-03
 -1.080785645E-03 1.572489738E-03
 -1.083403942E-03 1.598685980E-03
 -1.086049830E-03 1.625299454E-03
 -1.088681747E-03 1.652359962E-03
 -1.091347542E-03 1.679867506E-03
 -1.093991450E-03 1.707822084E-03
 -1.096672378E-03 1.736223698E-03
 -1.099330373E-03 1.765102148E-03
 -1.102030859E-03 1.794457436E-03
 -1.104703057E-03 1.824319363E-03
 -1.107416465E-03 1.854628325E-03
 -1.110101352E-03 1.885473728E-03
 -1.112831058E-03 1.916795969E-03
 -1.115523977E-03 1.948624849E-03
 -1.118267537E-03 1.980990171E-03
 -1.120975590E-03 2.013921738E-03
 -1.123732422E-03 2.047359943E-03
 -1.126449322E-03 2.081364393E-03
 -1.129218377E-03 2.115905285E-03
 -1.131945523E-03 2.151042223E-03
 -1.134727616E-03 2.186745405E-03
 -1.137459418E-03 2.223014832E-03
 -1.140251290E-03 2.259910107E-03
 -1.142991008E-03 2.297401428E-03
 -1.145791262E-03 2.335518599E-03
 -1.148538548E-03 2.374291420E-03
 -1.151344739E-03 2.413660288E-03
 -1.154093770E-03 2.453684807E-03
 -1.156906248E-03 2.494364977E-03
 -1.159656560E-03 2.535700798E-03
 -1.162474509E-03 2.577751875E-03
 -1.165227266E-03 2.620488405E-03
 -1.168047660E-03 2.663940191E-03
 -1.170799020E-03 2.708107233E-03
 -1.173616503E-03 2.752959728E-03
 -1.176363789E-03 2.798587084E-03
 -1.179180807E-03 2.844959497E-03
 -1.181923435E-03 2.892106771E-03
 -1.184737426E-03 2.940028906E-03
 -1.187472255E-03 2.988755703E-03
 -1.190278446E-03 3.038257360E-03
 -1.193003147E-03 3.088593483E-03
 -1.195800374E-03 3.139734268E-03
 -1.198511454E-03 3.191739321E-03
 -1.201299601E-03 3.244638443E-03
 -1.203995082E-03 3.298372030E-03
 -1.206765650E-03 3.352969885E-03
 -1.209442737E-03 3.408491611E-03
 -1.212196308E-03 3.464937210E-03
 -1.214853371E-03 3.522336483E-03
 -1.217584824E-03 3.580659628E-03
 -1.220217440E-03 3.639936447E-03
 -1.222923980E-03 3.700196743E-03
 -1.225530053E-03 3.761470318E-03
 -1.228208421E-03 3.823757172E-03
 -1.230783178E-03 3.887057304E-03
 -1.233428251E-03 3.951400518E-03
 -1.235967153E-03 4.016786814E-03
 -1.238575787E-03 4.083275795E-03
 -1.241078251E-03 4.150897264E-03
 -1.243646024E-03 4.219591618E-03
 -1.246105065E-03 4.289448261E-03
 -1.248628134E-03 4.360437393E-03
 -1.251038280E-03 4.432588816E-03
 -1.253512339E-03 4.505962133E-03
 -1.255871844E-03 4.580557346E-03
 -1.258290722E-03 4.656344652E-03
 -1.260593650E-03 4.733443260E-03
 -1.262953389E-03 4.811763763E-03
 -1.265193452E-03 4.891395569E-03
 -1.267489046E-03 4.972338676E-03
 -1.269661123E-03 5.054622889E-03
 -1.271886867E-03 5.138278008E-03
 -1.273986301E-03 5.223304033E-03
 -1.276135794E-03 5.309730768E-03
 -1.278156531E-03 5.397617817E-03
 -1.280224067E-03 5.486935377E-03
 -1.282159355E-03 5.577743053E-03
 -1.284137834E-03 5.670011044E-03
 -1.285981853E-03 5.763858557E-03
 -1.287866384E-03 5.859255791E-03
 -1.289611449E-03 5.956202745E-03
 -1.291393768E-03 6.054759026E-03
 -1.293033361E-03 6.154954433E-03
 -1.294706366E-03 6.256788969E-03
 -1.296233619E-03 6.360322237E-03
 -1.297790557E-03 6.465584040E-03
 -1.299197087E-03 6.572574377E-03
 -1.300629112E-03 6.681323051E-03
 -1.301907469E-03 6.791889668E-03
 -1.303206780E-03 6.904274225E-03
 -1.304348232E-03 7.018506527E-03
 -1.305506332E-03 7.134646177E-03
 -1.306502498E-03 7.252722979E-03
 -1.307510072E-03 7.372707129E-03
 -1.308351872E-03 7.494747639E-03
 -1.309199957E-03 7.618725300E-03
 -1.309877611E-03 7.744818926E-03
 -1.310556545E-03 7.872968912E-03
 -1.311060041E-03 8.003234863E-03
 -1.311559696E-03 8.135706186E-03
 -1.311879023E-03 8.270323277E-03
 -1.312188804E-03 8.407175541E-03
 -1.312313369E-03 8.546292782E-03
 -1.312422100E-03 8.687704802E-03
 -1.312340610E-03 8.831501007E-03
 -1.312237000E-03 8.977621794E-03
 -1.311937813E-03 9.126186371E-03
 -1.311609871E-03 9.277224541E-03
 -1.311080996E-03 9.430736303E-03
 -1.310516498E-03 9.586811066E-03
 -1.309745130E-03 9.745448828E-03
 -1.308931038E-03 9.906738997E-03
 -1.307904138E-03 1.007068157E-02
 -1.306827064E-03 1.023733616E-02
 -1.305531012E-03 1.040676236E-02
 -1.304176752E-03 1.057898998E-02
 -1.302597229E-03 1.075407863E-02
 -1.300951466E-03 1.093205810E-02
 -1.299073803E-03 1.111298800E-02
 -1.297121402E-03 1.129689813E-02
 -1.294930000E-03 1.148387790E-02
 -1.292655012E-03 1.167392731E-02
 -1.290133805E-03 1.186716557E-02
 -1.287519699E-03 1.206356287E-02
 -1.284652390E-03 1.226323843E-02
 -1.281682285E-03 1.246619225E-02
 -1.278451295E-03 1.267254353E-02
 -1.275107265E-03 1.288229227E-02
 -1.271494897E-03 1.309552789E-02
 -1.267758780E-03 1.331228018E-02
 -1.263745828E-03 1.353263855E-02
 -1.259598183E-03 1.375663280E-02
 -1.255165902E-03 1.398435235E-02
 -1.250587171E-03 1.421582699E-02
 -1.245714957E-03 1.445114613E-02
 -1.240684302E-03 1.469036937E-02
 -1.235351665E-03 1.493355632E-02
 -1.229848829E-03 1.518073678E-02
 -1.224033302E-03 1.543205976E-02
 -1.218034653E-03 1.568752527E-02
 -1.211715280E-03 1.594722271E-02
 -1.205198350E-03 1.621124148E-02
 -1.198351383E-03 1.647961140E-02
 -1.191293937E-03 1.675242186E-02
 -1.183895511E-03 1.702979207E-02
 -1.176272519E-03 1.731172204E-02
 -1.168299001E-03 1.759833097E-02
 -1.160084852E-03 1.788970828E-02
 -1.151510398E-03 1.818591356E-02
 -1.142682275E-03 1.848697662E-02
 -1.133482321E-03 1.879307628E-02
 -1.124011469E-03 1.910424232E-02
 -1.114159939E-03 1.942056417E-02
 -1.104021329E-03 1.974213123E-02
 -1.093491795E-03 2.006903291E-02
 -1.082659815E-03 2.040132880E-02
 -1.071427250E-03 2.073913813E-02
 -1.059874310E-03 2.108255029E-02
 -1.047910773E-03 2.143165469E-02
 -1.035609748E-03 2.178657055E-02
 -1.022890559E-03 2.214732766E-02
 -1.009816770E-03 2.251410484E-02
 -9.963162011E-04 2.288693190E-02
 -9.824462468E-04 2.326592803E-02
 -9.681396768E-04 2.365124226E-02
 -9.534471901E-04 2.404293418E-02
 -9.383126162E-04 2.444112301E-02
 -9.227780392E-04 2.484586835E-02
 -9.067946812E-04 2.525737882E-02
 -8.903963608E-04 2.567568421E-02
 -8.735486772E-04 2.610093355E-02
 -8.562720031E-04 2.653321624E-02
 -8.385443944E-04 2.697271109E-02
 -8.203776670E-04 2.741944790E-02
 -8.017637883E-04 2.787363529E-02
 -7.827014197E-04 2.833530307E-02
 -7.631990593E-04 2.880465984E-02
 -7.432423299E-04 2.928176522E-02
 -7.228583563E-04 2.976682782E-02
 -7.020189660E-04 3.025987744E-02
 -6.807711907E-04 3.076115251E-02
 -6.590702687E-04 3.127071261E-02
 -6.369892508E-04 3.178873658E-02
 -6.144645740E-04 3.231534362E-02
 -5.915972288E-04 3.285068274E-02
 -5.683042109E-04 3.339490294E-02
 -5.447166041E-04 3.394815326E-02
 -5.207341164E-04 3.451055288E-02
 -4.965182743E-04 3.508234024E-02
 -4.719514982E-04 3.566354513E-02
 -4.472336150E-04 3.625443578E-02
 -4.222215794E-04 3.685510159E-02
 -3.971628321E-04 3.746575117E-02
 -3.718890657E-04 3.808647394E-02
 -3.466958296E-04 3.871756792E-02
 -3.213906602E-04 3.935906291E-02
 -2.963289444E-04 4.001125693E-02
 -2.712849237E-04 4.067423940E-02
 -2.466866281E-04 4.134821892E-02
 -2.222694166E-04 4.203337431E-02
 -1.985408162E-04 4.272991419E-02
 -1.751982345E-04 4.343798757E-02
 -1.528395223E-04 4.415783286E-02
 -1.311143860E-04 4.488956928E-02
 -1.107234275E-04 4.563349485E-02
 -9.125772340E-05 4.638975859E-02
 -7.353610999E-05 4.715856910E-02
 -5.705964213E-05 4.794010520E-02
 -4.276731852E-05 4.873463511E-02
 -3.017021663E-05 4.954230785E-02
 -2.035844045E-05 5.036345124E-02
 -1.243716179E-05 5.119815469E-02
 -7.515805919E-06 5.204674602E-02
 -3.842028946E-06 5.290940404E-02
 -2.198680022E-06 5.378639698E-02
 -9.806203707E-07 5.467790365E-02
 -5.350041192E-07 5.558425188E-02
 -2.088855524E-07 5.650559068E-02
 -1.177458415E-07 5.744224787E-02
 -4.890315353E-08 5.839440227E-02
 -3.545761729E-08 5.936244130E-02
 -2.472439498E-08 6.034645438E-02
 -2.222708240E-08 6.134688854E-02
 -2.025360679E-08 6.236386299E-02
 -1.977537423E-08 6.339776516E-02
 -1.941566730E-08 6.444877386E-02
 -1.939081251E-08 6.551724672E-02
 -1.939242900E-08 6.660345197E-02
 -1.947045725E-08 6.770771742E-02
 -1.955405970E-08 6.883025169E-02
 -1.965324792E-08 6.997147202E-02
 -1.975342556E-08 7.113158703E-02
 -1.985546305E-08 7.231101394E-02
 -1.995739574E-08 7.350996137E-02
 -2.005836208E-08 7.472887635E-02
 -2.015880973E-08 7.596796751E-02
 -2.025784340E-08 7.722765207E-02
 -2.035606350E-08 7.850822806E-02
 -2.045293002E-08 7.981011271E-02
 -2.054868098E-08 8.113354445E-02
 -2.064323112E-08 8.247900009E-02
 -2.073634775E-08 8.384674788E-02
 -2.082842876E-08 8.523726463E-02
 -2.091873696E-08 8.665078878E-02
 -2.100817831E-08 8.808785677E-02
 -2.109548980E-08 8.954870701E-02
 -2.118210674E-08 9.103390574E-02
 -2.126621901E-08 9.254369140E-02
 -2.134980903E-08 9.407857060E-02
 -2.143049649E-08 9.563890100E-02
 -2.151084111E-08 9.722524881E-02
 -2.158786394E-08 9.883782268E-02
 -2.166472512E-08 1.004772484E-01
 -2.173784175E-08 1.021438241E-01
 -2.181098502E-08 1.038381457E-01
 -2.187993609E-08 1.055605412E-01
 -2.194909854E-08 1.073116064E-01
 -2.201362292E-08 1.090916991E-01
 -2.207855232E-08 1.109014153E-01
 -2.213837647E-08 1.127411127E-01
 -2.219880457E-08 1.146114469E-01
 -2.225365492E-08 1.165127158E-01
 -2.230930463E-08 1.184456944E-01
 -2.235890761E-08 1.204106808E-01
 -2.240951247E-08 1.224084198E-01
 -2.245358743E-08 1.244392097E-01
 -2.249886677E-08 1.265038252E-01
 -2.253713838E-08 1.286026835E-01
 -2.257681864E-08 1.307364702E-01
 -2.260901155E-08 1.329056025E-01
 -2.264282450E-08 1.351108551E-01
 -2.266866872E-08 1.373526454E-01
 -2.269633903E-08 1.396318078E-01
 -2.271557165E-08 1.419487000E-01
 -2.273683641E-08 1.443042159E-01
 -2.274920163E-08 1.466987729E-01
 -2.276380506E-08 1.491332054E-01
 -2.276905597E-08 1.516079307E-01
 -2.277675293E-08 1.541239023E-01
 -2.277465505E-08 1.566815376E-01
 -2.277520750E-08 1.592818499E-01
 -2.276553879E-08 1.619251370E-01
 -2.275872291E-08 1.646125913E-01
 -2.274127553E-08 1.673445106E-01
 -2.272688526E-08 1.701219678E-01
 -2.270146915E-08 1.729454398E-01
 -2.267931087E-08 1.758159995E-01
 -2.264575372E-08 1.787340641E-01
 -2.261564980E-08 1.817008257E-01
 -2.257379883E-08 1.847166419E-01
 -2.253559828E-08 1.877827644E-01
 -2.248532027E-08 1.908997297E-01
 -2.243888275E-08 1.940686107E-01
 -2.238006402E-08 1.972900629E-01
 -2.232527940E-08 2.005650997E-01
 -2.225784002E-08 2.038944960E-01
 -2.219461592E-08 2.072793841E-01
 -2.211849370E-08 2.107203007E-01
 -2.204676797E-08 2.142186761E-01
 -2.196192561E-08 2.177749276E-01
 -2.188165915E-08 2.213904858E-01
 -2.178808600E-08 2.250660062E-01
 -2.169926283E-08 2.288027406E-01
 -2.159698020E-08 2.326014638E-01
 -2.149961809E-08 2.364635468E-01
 -2.138867394E-08 2.403895259E-01
 -2.128281373E-08 2.443810701E-01
 -2.116327913E-08 2.484387159E-01
 -2.104899721E-08 2.525640130E-01
 -2.092097873E-08 2.567577362E-01
 -2.079837458E-08 2.610213161E-01
 -2.066200544E-08 2.653556466E-01
 -2.053120873E-08 2.697621584E-01
 -2.038665414E-08 2.742418051E-01
 -2.024782297E-08 2.787960768E-01
 -2.009528011E-08 2.834258676E-01
 -1.994860632E-08 2.881329060E-01
 -1.978829545E-08 2.929179072E-01
 -1.963399399E-08 2.977827787E-01
 -1.946616557E-08 3.027282357E-01
 -1.930448690E-08 3.077562451E-01
 -1.912942338E-08 3.128675222E-01
 -1.896064283E-08 3.180640936E-01
 -1.877864797E-08 3.233468533E-01
 -1.860306398E-08 3.287177086E-01
 -1.841447528E-08 3.341775537E-01
 -1.823241824E-08 3.397285342E-01
 -1.803758742E-08 3.453715444E-01
 -1.784941261E-08 3.511086106E-01
 -1.764873225E-08 3.569408655E-01
 -1.745481981E-08 3.628703952E-01
 -1.724869847E-08 3.688982725E-01
 -1.704944985E-08 3.750267029E-01
 -1.683831563E-08 3.812567592E-01
 -1.663415716E-08 3.875907063E-01
 -1.641845770E-08 3.940297365E-01
 -1.620982104E-08 4.005761743E-01
 -1.599001642E-08 4.072311521E-01
 -1.577735631E-08 4.139972329E-01
 -1.555392082E-08 4.208754301E-01
 -1.533770622E-08 4.278684855E-01
 -1.511112835E-08 4.349774122E-01
 -1.489183621E-08 4.422050714E-01
 -1.466261335E-08 4.495525360E-01
 -1.444073749E-08 4.570226073E-01
 -1.420937057E-08 4.646165967E-01
 -1.398539329E-08 4.723373055E-01
 -1.375238323E-08 4.801860452E-01
 -1.352679568E-08 4.881657958E-01
 -1.329240895E-08 4.962779284E-01
 -1.306522712E-08 5.045254230E-01
 -1.282959339E-08 5.129096508E-01
 -1.260104288E-08 5.214339495E-01
 -1.236470215E-08 5.300995708E-01
 -1.213565426E-08 5.389098525E-01
 -1.189963950E-08 5.478662252E-01
 -1.167127373E-08 5.569721460E-01
 -1.143658146E-08 5.662291050E-01
 -1.120967408E-08 5.756406188E-01
 -1.097686919E-08 5.852082372E-01
 -1.075173639E-08 5.949355960E-01
 -1.052106580E-08 6.048242450E-01
 -1.029787189E-08 6.148780584E-01
 -1.006964023E-08 6.250987053E-01
 -9.848845295E-09 6.354899406E-01
 -9.623478014E-09 6.460535526E-01
 -9.405463075E-09 6.567935944E-01
 -9.183355409E-09 6.677117348E-01
 -8.968529919E-09 6.788122654E-01
 -8.750065561E-09 6.900969744E-01
 -8.538793672E-09 7.015700340E-01
 -8.324294143E-09 7.132335901E-01
 -8.116852968E-09 7.250918150E-01
 -7.906550969E-09 7.371467352E-01
 -7.703123472E-09 7.494029999E-01
 -7.497239274E-09 7.618627548E-01
 -7.298106119E-09 7.745305300E-01
 -7.096963905E-09 7.874084711E-01
 -6.902490135E-09 8.005017042E-01
 -6.706430078E-09 8.138118982E-01
 -6.516880369E-09 8.273445368E-01
 -6.326152047E-09 8.411017656E-01
 -6.141730235E-09 8.550888300E-01
 -5.956502847E-09 8.693079948E-01
 -5.796385594E-09 8.822281361E-01
 -5.777352818E-09 8.837646246E-01
 -5.597781350E-09 8.984612226E-01
 -5.424071414E-09 9.134032726E-01
 -5.250354373E-09 9.285932779E-01
 -5.082263055E-09 9.440371990E-01
 -4.914531893E-09 9.597373009E-01
 -4.752185756E-09 9.756997824E-01
 -4.590527070E-09 9.919271469E-01
 -4.434017153E-09 1.008425713E+00
 -4.278480237E-09 1.025197983E+00
 -4.127854947E-09 1.042250633E+00
 -3.978485985E-09 1.059586167E+00
 -3.833833695E-09 1.077211618E+00
 -3.690687311E-09 1.095129371E+00
 -3.552070194E-09 1.113346815E+00
 -3.415166150E-09 1.131866455E+00
 -3.282601524E-09 1.150695682E+00
 -3.151926276E-09 1.169837356E+00
 -3.025404816E-09 1.189299107E+00
 -2.900916840E-09 1.209083796E+00
 -2.780398800E-09 1.229199290E+00
 -2.662055243E-09 1.249648571E+00
 -2.547530409E-09 1.270439625E+00
 -2.435288415E-09 1.291575909E+00
 -2.326711712E-09 1.313065529E+00
 -2.220491568E-09 1.334911942E+00
 -2.117776843E-09 1.357123494E+00
 -2.017487510E-09 1.379703879E+00
 -1.920567261E-09 1.402661681E+00
 -1.826110818E-09 1.426000476E+00
 -1.734879018E-09 1.449729681E+00
 -1.646139780E-09 1.473852873E+00
 -1.560500174E-09 1.498379350E+00
 -1.477349354E-09 1.523313046E+00
 -1.397159943E-09 1.548663616E+00
 -1.319459986E-09 1.574435115E+00
 -1.244609416E-09 1.600637674E+00
 -1.172223763E-09 1.627274990E+00
 -1.102567593E-09 1.654358149E+00
 -1.035329933E-09 1.681890965E+00
 -9.707015192E-10 1.709883928E+00
 -9.084333841E-10 1.738342047E+00
 -8.486559233E-10 1.767276049E+00
 -7.911720168E-10 1.796690464E+00
 -7.360650978E-10 1.826596737E+00
 -6.831739618E-10 1.856999874E+00
 -6.325493462E-10 1.887911558E+00
 -5.840530282E-10 1.919336319E+00
 -5.377129852E-10 1.951287031E+00
 -4.934024855E-10 1.983768225E+00
 -4.511389318E-10 2.016792774E+00
 -4.107991725E-10 2.050365925E+00
 -3.723982789E-10 2.084500551E+00
 -3.358087142E-10 2.119202375E+00
 -3.010502680E-10 2.154484510E+00
 -2.679851896E-10 2.190352678E+00
 -2.366429552E-10 2.226821184E+00
 -2.068713950E-10 2.263895512E+00
 -1.787154175E-10 2.301589727E+00
 -1.520042286E-10 2.339910507E+00
 -1.268010003E-10 2.378872156E+00
 -1.029151972E-10 2.418481350E+00
 -8.042985722E-11 2.458753347E+00
 -5.913397549E-11 2.499694347E+00
 -3.913150706E-11 2.541320086E+00
 -2.019062868E-11 2.583637953E+00
 -2.436298559E-12 2.626663685E+00
 1.438257326E-11 2.670404434E+00
 3.012171415E-11 2.714876890E+00
 4.504916579E-11 2.760088682E+00
 5.900329531E-11 2.806056976E+00
 7.226405585E-11 2.852789164E+00
 8.465533136E-11 2.900303364E+00
 9.648241928E-11 2.948607445E+00
 1.075596903E-10 2.997719765E+00
 1.181464926E-10 3.047648430E+00
 1.280477391E-10 3.098412752E+00
 1.377182257E-10 3.150020838E+00
 1.469749183E-10 3.202492714E+00
 1.555672396E-10 3.255836725E+00
 1.632745744E-10 3.310073614E+00
 1.718249293E-10 3.365211964E+00
 1.811226585E-10 3.421273708E+00
 1.753264478E-10 3.478267193E+00
 1.531751809E-10 3.536214828E+00
 0.000000000E+00 3.595125675E+00
ZONE T="CFL3D, Slc: X=0.688"
 0.000000000E+00 0.000000000E+00
 0.000000000E+00 2.890825272E-06
 0.000000000E+00 5.811452866E-06
 0.000000000E+00 8.732080460E-06
 0.000000000E+00 1.165270805E-05
 0.000000000E+00 1.457333565E-05
 0.000000000E+00 1.752376556E-05
 2.437741328E-11 2.044439316E-05
 6.380733442E-11 2.339482307E-05
 2.267336041E-10 2.634525299E-05
 4.678419874E-10 2.929568291E-05
 1.000121874E-09 3.224611282E-05
 1.708465591E-09 3.522634506E-05
 2.918852715E-09 3.820657730E-05
 4.377412210E-09 4.118680954E-05
 6.598285474E-09 4.419684410E-05
 9.143041879E-09 4.720687866E-05
 1.272960670E-08 5.024671555E-05
 1.666281513E-08 5.328655243E-05
 2.180274983E-08 5.635619164E-05
 2.720085135E-08 5.942583084E-05
 3.332988285E-08 6.249547005E-05
 3.958150430E-08 6.562471390E-05
 4.487856131E-08 6.875395775E-05
 4.985138702E-08 7.188320160E-05
 4.969424694E-08 7.504224777E-05
 4.903701267E-08 7.823109627E-05
 3.455192399E-08 8.144974709E-05
 1.878545142E-08 8.466839790E-05
 -2.399590393E-08 8.791685104E-05
 -7.130528701E-08 9.119510651E-05
 -1.658692241E-07 9.450316429E-05
 -2.727639981E-07 9.784102440E-05
 -4.555527369E-07 1.012086868E-04
 -6.664411671E-07 1.045763493E-04
 -9.850742799E-07 1.079738140E-04
 -1.369258598E-06 1.114308834E-04
 -1.899489689E-06 1.148879528E-04
 -2.553285640E-06 1.184046268E-04
 -3.409518285E-06 1.219511032E-04
 -4.465708116E-06 1.254975796E-04
 -5.784160749E-06 1.291036606E-04
 -7.445452866E-06 1.327395439E-04
 -9.424075870E-06 1.364350319E-04
 -1.194622655E-05 1.401603222E-04
 -1.477506248E-05 1.438856125E-04
 -1.846917257E-05 1.477003098E-04
 -2.244523421E-05 1.515150070E-04
 -2.765255158E-05 1.553893089E-04
 -3.310136526E-05 1.593232155E-04
 -4.027882096E-05 1.632869244E-04
 -4.763064499E-05 1.672804356E-04
 -5.696210428E-05 1.713335514E-04
 -6.663945533E-05 1.754462719E-04
 -7.837591693E-05 1.795887947E-04
 -9.062472236E-05 1.837909222E-04
 -1.048497070E-04 1.880228519E-04
 -1.197647071E-04 1.923143864E-04
 -1.365986245E-04 1.966655254E-04
 -1.542303798E-04 2.010762691E-04
 -1.734927355E-04 2.055466175E-04
 -1.934518223E-04 2.100467682E-04
 -2.148819185E-04 2.146363258E-04
 -2.368710848E-04 2.192556858E-04
 -2.598892024E-04 2.239346504E-04
 -2.836209314E-04 2.287030220E-04
 -3.081600007E-04 2.335309982E-04
 -3.329289902E-04 2.383887768E-04
 -3.583990328E-04 2.433359623E-04
 -3.839347919E-04 2.483427525E-04
 -4.099244252E-04 2.534389496E-04
 -4.358488077E-04 2.585649490E-04
 -4.621869011E-04 2.638101578E-04
 -4.883702495E-04 2.690851688E-04
 -5.146492040E-04 2.744495869E-04
 -5.410751328E-04 2.799034119E-04
 -5.673229462E-04 2.854168415E-04
 -5.936664529E-04 2.910196781E-04
 -6.197684561E-04 2.966821194E-04
 -6.460127188E-04 3.024339676E-04
 -6.720685633E-04 3.082752228E-04
 -6.982936175E-04 3.142058849E-04
 -7.241604035E-04 3.201961517E-04
 -7.504025125E-04 3.263056278E-04
 -7.762682508E-04 3.324747086E-04
 -8.025781717E-04 3.387629986E-04
 -8.284628275E-04 3.451108932E-04
 -8.548354963E-04 3.515779972E-04
 -8.809110732E-04 3.581345081E-04
 -9.074991685E-04 3.648102283E-04
 -9.336416842E-04 3.715455532E-04
 -9.602617356E-04 3.784000874E-04
 -9.868750349E-04 3.853738308E-04
 -1.013810164E-03 3.924369812E-04
 -1.040750067E-03 3.996193409E-04
 -1.067917910E-03 4.068911076E-04
 -1.095200656E-03 4.142820835E-04
 -1.122731250E-03 4.217922688E-04
 -1.150571159E-03 4.294216633E-04
 -1.178474980E-03 4.371404648E-04
 -1.206834801E-03 4.450082779E-04
 -1.235308708E-03 4.529953003E-04
 -1.264111139E-03 4.611015320E-04
 -1.292948029E-03 4.692971706E-04
 -1.322342432E-03 4.776418209E-04
 -1.351914485E-03 4.861354828E-04
 -1.381892711E-03 4.947483540E-04
 -1.412029145E-03 5.035102367E-04
 -1.442601439E-03 5.123913288E-04
 -1.473336481E-03 5.214214325E-04
 -1.504649175E-03 5.306005478E-04
 -1.536125084E-03 5.399286747E-04
 -1.568206935E-03 5.494058132E-04
 -1.600252348E-03 5.590021610E-04
 -1.632974949E-03 5.687773228E-04
 -1.665804302E-03 5.787014961E-04
 -1.699246350E-03 5.887746811E-04
 -1.732894452E-03 5.990266800E-04
 -1.767172012E-03 6.094276905E-04
 -1.801552018E-03 6.200075150E-04
 -1.836517360E-03 6.307363510E-04
 -1.871784101E-03 6.416738033E-04
 -1.907599973E-03 6.527602673E-04
 -1.943632495E-03 6.640255451E-04
 -1.980267698E-03 6.754696369E-04
 -2.017140388E-03 6.870925426E-04
 -2.054656390E-03 6.989240646E-04
 -2.092391253E-03 7.109344006E-04
 -2.130612731E-03 7.231235504E-04
 -2.169357380E-03 7.355511189E-04
 -2.208424732E-03 7.481276989E-04
 -2.248015255E-03 7.609426975E-04
 -2.288046759E-03 7.739663124E-04
 -2.328579314E-03 7.871985435E-04
 -2.369473688E-03 8.006393909E-04
 -2.410813235E-03 8.142888546E-04
 -2.452595159E-03 8.281767368E-04
 -2.494926099E-03 8.422732353E-04
 -2.537630266E-03 8.566081524E-04
 -2.580845961E-03 8.711814880E-04
 -2.624438377E-03 8.859932423E-04
 -2.668596338E-03 9.010434151E-04
 -2.713092137E-03 9.163320065E-04
 -2.758234506E-03 9.318888187E-04
 -2.803651849E-03 9.476840496E-04
 -2.849644516E-03 9.637475014E-04
 -2.895984100E-03 9.800791740E-04
 -2.942907391E-03 9.966790676E-04
 -2.990067471E-03 1.013517380E-03
 -3.037995193E-03 1.030683517E-03
 -3.086062148E-03 1.048088074E-03
 -3.134729574E-03 1.065790653E-03
 -3.183705499E-03 1.083791256E-03
 -3.233302617E-03 1.102089882E-03
 -3.283135593E-03 1.120686531E-03
 -3.333557397E-03 1.139581203E-03
 -3.384245327E-03 1.158803701E-03
 -3.435503924E-03 1.178324223E-03
 -3.486950882E-03 1.198172569E-03
 -3.539018100E-03 1.218348742E-03
 -3.591186367E-03 1.238852739E-03
 -3.644007258E-03 1.259714365E-03
 -3.696901025E-03 1.280903816E-03
 -3.750434844E-03 1.302450895E-03
 -3.803921863E-03 1.324325800E-03
 -3.858075943E-03 1.346588135E-03
 -3.912185319E-03 1.369208097E-03
 -3.966932185E-03 1.392215490E-03
 -4.021625966E-03 1.415610313E-03
 -4.076858051E-03 1.439362764E-03
 -4.131969996E-03 1.463532448E-03
 -4.187637940E-03 1.488089561E-03
 -4.243114963E-03 1.513063908E-03
 -4.299126100E-03 1.538425684E-03
 -4.354831297E-03 1.564234495E-03
 -4.411086906E-03 1.590460539E-03
 -4.466870800E-03 1.617103815E-03
 -4.523244686E-03 1.644194126E-03
 -4.579085857E-03 1.671761274E-03
 -4.635486286E-03 1.699775457E-03
 -4.691111855E-03 1.728236675E-03
 -4.747334868E-03 1.757174730E-03
 -4.802641924E-03 1.786589622E-03
 -4.858587869E-03 1.816511154E-03
 -4.913449287E-03 1.846939325E-03
 -4.968888592E-03 1.877844334E-03
 -5.022979807E-03 1.909255981E-03
 -5.077754147E-03 1.941204071E-03
 -5.131000187E-03 1.973688602E-03
 -5.184940062E-03 2.006709576E-03
 -5.236990284E-03 2.040266991E-03
 -5.289801396E-03 2.074390650E-03
 -5.340453237E-03 2.109080553E-03
 -5.391874816E-03 2.144336700E-03
 -5.440890323E-03 2.180188894E-03
 -5.490680225E-03 2.216637135E-03
 -5.537762307E-03 2.253681421E-03
 -5.585592706E-03 2.291351557E-03
 -5.630467553E-03 2.329647541E-03
 -5.676022731E-03 2.368569374E-03
 -5.718331318E-03 2.408146858E-03
 -5.761288106E-03 2.448379993E-03
 -5.800731014E-03 2.489298582E-03
 -5.840751342E-03 2.530872822E-03
 -5.876922049E-03 2.573162317E-03
 -5.913631525E-03 2.616137266E-03
 -5.946155638E-03 2.659827471E-03
 -5.979194306E-03 2.704262733E-03
 -6.007695571E-03 2.749413252E-03
 -6.036655046E-03 2.795338631E-03
 -6.060737651E-03 2.842009068E-03
 -6.085203495E-03 2.889454365E-03
 -6.104473025E-03 2.937704325E-03
 -6.124060135E-03 2.986758947E-03
 -6.138101686E-03 3.036618233E-03
 -6.152393296E-03 3.087311983E-03
 -6.160825957E-03 3.138870001E-03
 -6.169426255E-03 3.191262484E-03
 -6.171859801E-03 3.244519234E-03
 -6.174387876E-03 3.298670053E-03
 -6.170474458E-03 3.353714943E-03
 -6.166567560E-03 3.409683704E-03
 -6.155978888E-03 3.466606140E-03
 -6.145294756E-03 3.524452448E-03
 -6.127762608E-03 3.583282232E-03
 -6.109980401E-03 3.643095493E-03
 -6.085296161E-03 3.703892231E-03
 -6.060207728E-03 3.765672445E-03
 -6.028203294E-03 3.828525543E-03
 -5.995613988E-03 3.892421722E-03
 -5.956212524E-03 3.957360983E-03
 -5.916047841E-03 4.023402929E-03
 -5.869204644E-03 4.090547562E-03
 -5.821464583E-03 4.158794880E-03
 -5.767292343E-03 4.228174686E-03
 -5.712066777E-03 4.298716784E-03
 -5.650729872E-03 4.370450974E-03
 -5.588217173E-03 4.443377256E-03