TITLE     = "Surface Pressure Coefficients CFL3D M=0.875, SSG/LRR-RSM-w2012 model"
variables="x","cp"
zone, t="CFL3D, fine grid"
 -0.319885492E+01  0.366500988E-01
 -0.317353201E+01  0.251388995E-01
 -0.314820910E+01  0.141447862E-01
 -0.312288642E+01  0.130889715E-01
 -0.309756351E+01  0.109972717E-01
 -0.307224059E+01  0.992401835E-02
 -0.304691768E+01  0.900195152E-02
 -0.302159476E+01  0.831125777E-02
 -0.299627185E+01  0.779790850E-02
 -0.297223997E+01  0.739635323E-02
 -0.294820833E+01  0.704695810E-02
 -0.292417645E+01  0.678896000E-02
 -0.290014482E+01  0.657175581E-02
 -0.287611294E+01  0.639316570E-02
 -0.285208130E+01  0.624633878E-02
 -0.282804942E+01  0.610885398E-02
 -0.280401778E+01  0.602415213E-02
 -0.278121138E+01  0.595175073E-02
 -0.275840497E+01  0.586767169E-02
 -0.273559856E+01  0.581893698E-02
 -0.271279216E+01  0.577720887E-02
 -0.268998575E+01  0.574715840E-02
 -0.266717935E+01  0.572862987E-02
 -0.264437294E+01  0.570418466E-02
 -0.262156653E+01  0.571274827E-02
 -0.259992290E+01  0.572318030E-02
 -0.257827902E+01  0.571695222E-02
 -0.255663538E+01  0.573501364E-02
 -0.253499150E+01  0.575541060E-02
 -0.251334786E+01  0.578265844E-02
 -0.249170399E+01  0.581753567E-02
 -0.247006035E+01  0.584493921E-02
 -0.244841671E+01  0.589834497E-02
 -0.242787647E+01  0.595190643E-02
 -0.240733647E+01  0.598927490E-02
 -0.238679624E+01  0.604657321E-02
 -0.236625600E+01  0.610527283E-02
 -0.234571600E+01  0.616879922E-02
 -0.232517576E+01  0.623855368E-02
 -0.230463576E+01  0.630067875E-02
 -0.228409553E+01  0.638460209E-02
 -0.226460266E+01  0.646774692E-02
 -0.224510980E+01  0.653594437E-02
 -0.222561693E+01  0.662142473E-02
 -0.220612407E+01  0.670752789E-02
 -0.218663120E+01  0.679783501E-02
 -0.216713834E+01  0.689374740E-02
 -0.214764547E+01  0.698296461E-02
 -0.212815261E+01  0.709195596E-02
 -0.210965371E+01  0.720048020E-02
 -0.209115481E+01  0.729561408E-02
 -0.207265568E+01  0.740662956E-02
 -0.205415678E+01  0.751889065E-02
 -0.203565788E+01  0.763535569E-02
 -0.201715875E+01  0.775789311E-02
 -0.199865985E+01  0.787575947E-02
 -0.198016083E+01  0.801215436E-02
 -0.196260500E+01  0.814808214E-02
 -0.194504917E+01  0.827186518E-02
 -0.192749333E+01  0.841059560E-02
 -0.190993738E+01  0.855072733E-02
 -0.189238155E+01  0.869568583E-02
 -0.187482572E+01  0.884718381E-02
 -0.185726988E+01  0.899525634E-02
 -0.183971405E+01  0.915998898E-02
 -0.182305312E+01  0.932316460E-02
 -0.180639231E+01  0.947497398E-02
 -0.178973150E+01  0.964048514E-02
 -0.177307069E+01  0.980833181E-02
 -0.175640976E+01  0.998116096E-02
 -0.173974895E+01  0.101608410E-01
 -0.172308815E+01  0.103377184E-01
 -0.170642722E+01  0.105298546E-01
 -0.169061601E+01  0.107202780E-01
 -0.167480481E+01  0.109008923E-01
 -0.165899360E+01  0.110961425E-01
 -0.164318240E+01  0.112948181E-01
 -0.162737119E+01  0.114997219E-01
 -0.161155999E+01  0.117122550E-01
 -0.159574866E+01  0.119238539E-01
 -0.157993746E+01  0.121508673E-01
 -0.156493235E+01  0.123771022E-01
 -0.154992712E+01  0.125957078E-01
 -0.153492188E+01  0.128295720E-01
 -0.151991665E+01  0.130679517E-01
 -0.150491142E+01  0.133134936E-01
 -0.148990619E+01  0.135672878E-01
 -0.147490096E+01  0.138217047E-01
 -0.145989585E+01  0.140916919E-01
 -0.144565570E+01  0.143601220E-01
 -0.143141568E+01  0.146213899E-01
 -0.141717553E+01  0.148976051E-01
 -0.140293550E+01  0.151788028E-01
 -0.138869536E+01  0.154676298E-01
 -0.137445533E+01  0.157659547E-01
 -0.136021519E+01  0.160663038E-01
 -0.134597516E+01  0.163819116E-01
 -0.133246100E+01  0.166956510E-01
 -0.131894696E+01  0.170033180E-01
 -0.130543292E+01  0.173274894E-01
 -0.129191887E+01  0.176588231E-01
 -0.127840471E+01  0.180004331E-01
 -0.126489067E+01  0.183535651E-01
 -0.125137663E+01  0.187112124E-01
 -0.123786247E+01  0.190856756E-01
 -0.122503746E+01  0.194590488E-01
 -0.121221232E+01  0.198286852E-01
 -0.119938731E+01  0.202174729E-01
 -0.118656218E+01  0.206154470E-01
 -0.117373717E+01  0.210254102E-01
 -0.116091204E+01  0.214482966E-01
 -0.114808702E+01  0.218778783E-01
 -0.113526189E+01  0.223248985E-01
 -0.112309086E+01  0.227702060E-01
 -0.111091971E+01  0.232120881E-01
 -0.109874868E+01  0.236739000E-01
 -0.108657765E+01  0.241459883E-01
 -0.107440650E+01  0.246313112E-01
 -0.106223547E+01  0.251317372E-01
 -0.105006444E+01  0.256411939E-01
 -0.103789330E+01  0.261694905E-01
 -0.102634275E+01  0.266962302E-01
 -0.101479208E+01  0.272214128E-01
 -0.100324142E+01  0.277707292E-01
 -0.991690814E+00  0.283345259E-01
 -0.980140150E+00  0.289165397E-01
 -0.968589544E+00  0.295181719E-01
 -0.957038939E+00  0.301333502E-01
 -0.945488274E+00  0.307711054E-01
 -0.934526622E+00  0.314082376E-01
 -0.923564911E+00  0.320463042E-01
 -0.912603259E+00  0.327119299E-01
 -0.901641548E+00  0.333945272E-01
 -0.890679896E+00  0.340972100E-01
 -0.879718244E+00  0.348213796E-01
 -0.868756533E+00  0.355608081E-01
 -0.857794881E+00  0.363242147E-01
 -0.847392082E+00  0.370854414E-01
 -0.836989284E+00  0.378483808E-01
 -0.826586485E+00  0.386435506E-01
 -0.816183686E+00  0.394600515E-01
 -0.805780888E+00  0.403022432E-01
 -0.795378089E+00  0.411715271E-01
 -0.784975290E+00  0.420613636E-01
 -0.774572492E+00  0.429789151E-01
 -0.764700055E+00  0.438931968E-01
 -0.754827678E+00  0.448095027E-01
 -0.744955301E+00  0.457622428E-01
 -0.735082924E+00  0.467403623E-01
 -0.725210488E+00  0.477514906E-01
 -0.715338111E+00  0.488018559E-01
 -0.705465734E+00  0.498909909E-01
 -0.695593297E+00  0.510322860E-01
 -0.686224282E+00  0.521924211E-01
 -0.676855206E+00  0.533776242E-01
 -0.667486131E+00  0.546201256E-01
 -0.658117115E+00  0.558922103E-01
 -0.648748040E+00  0.571797096E-01
 -0.639378965E+00  0.584644062E-01
 -0.630009949E+00  0.597262146E-01
 -0.620640874E+00  0.609749441E-01
 -0.611749530E+00  0.621894191E-01
 -0.602858126E+00  0.634138591E-01
 -0.593966782E+00  0.647290733E-01
 -0.585075438E+00  0.661453381E-01
 -0.576184034E+00  0.676754209E-01
 -0.567292690E+00  0.692998591E-01
 -0.558401346E+00  0.709705408E-01
 -0.549509943E+00  0.726538344E-01
 -0.541071951E+00  0.742779612E-01
 -0.532633901E+00  0.758711034E-01
 -0.524195910E+00  0.775297960E-01
 -0.515757859E+00  0.792829997E-01
 -0.507319808E+00  0.811747782E-01
 -0.498881817E+00  0.832163419E-01
 -0.490443796E+00  0.853804430E-01
 -0.482005775E+00  0.876406122E-01
 -0.473997951E+00  0.898953318E-01
 -0.465990126E+00  0.921399308E-01
 -0.457982302E+00  0.944296834E-01
 -0.449974477E+00  0.967248855E-01
 -0.441966653E+00  0.990177522E-01
 -0.433958828E+00  0.101297851E+00
 -0.425951004E+00  0.103550391E+00
 -0.417943180E+00  0.105801997E+00
 -0.410343647E+00  0.108010940E+00
 -0.402744114E+00  0.110239034E+00
 -0.395144582E+00  0.112610063E+00
 -0.387545049E+00  0.115140843E+00
 -0.379945517E+00  0.117881819E+00
 -0.372345984E+00  0.120855882E+00
 -0.364746451E+00  0.124038118E+00
 -0.357146919E+00  0.127391938E+00
 -0.349934876E+00  0.130734391E+00
 -0.342722803E+00  0.134005377E+00
 -0.335510731E+00  0.137251606E+00
 -0.328298658E+00  0.140430261E+00
 -0.321086586E+00  0.143613432E+00
 -0.313874513E+00  0.146915091E+00
 -0.306662470E+00  0.150433955E+00
 -0.299450397E+00  0.154259862E+00
 -0.292606026E+00  0.158259689E+00
 -0.285761684E+00  0.162377383E+00
 -0.278917342E+00  0.166633962E+00
 -0.272072971E+00  0.170907980E+00
 -0.265228629E+00  0.175194921E+00
 -0.258384287E+00  0.179539316E+00
 -0.251539916E+00  0.183987098E+00
 -0.244695574E+00  0.188634956E+00
 -0.238200188E+00  0.193365492E+00
 -0.231704801E+00  0.198206421E+00
 -0.225209400E+00  0.203288376E+00
 -0.218714014E+00  0.208520116E+00
 -0.212218627E+00  0.213904133E+00
 -0.205723241E+00  0.219439648E+00
 -0.199227855E+00  0.225138339E+00
 -0.192732468E+00  0.230943063E+00
 -0.186568260E+00  0.236969973E+00
 -0.180404082E+00  0.243800461E+00
 -0.174239919E+00  0.251327559E+00
 -0.168075755E+00  0.258994789E+00
 -0.161911547E+00  0.266616243E+00
 -0.155747339E+00  0.273967554E+00
 -0.149583206E+00  0.280865305E+00
 -0.143419310E+00  0.287046205E+00
 -0.137567371E+00  0.292384445E+00
 -0.131715715E+00  0.297618677E+00
 -0.125864476E+00  0.303007676E+00
 -0.120013840E+00  0.308162189E+00
 -0.114164039E+00  0.313062751E+00
 -0.108315386E+00  0.317615164E+00
 -0.102468267E+00  0.321729432E+00
 -0.966231525E-01  0.325309175E+00
 -0.910626873E-01  0.328217999E+00
 -0.855044648E-01  0.330666100E+00
 -0.799487233E-01  0.332861497E+00
 -0.743956789E-01  0.334725872E+00
 -0.688455477E-01  0.336294725E+00
 -0.632985532E-01  0.337573505E+00
 -0.577549040E-01  0.338576848E+00
 -0.522147976E-01  0.339265673E+00
 -0.469336957E-01  0.339705375E+00
 -0.416557342E-01  0.340056795E+00
 -0.363811627E-01  0.340306541E+00
 -0.311102606E-01  0.340376762E+00
 -0.258433260E-01  0.340238499E+00
 -0.205806866E-01  0.339848777E+00
 -0.153226992E-01  0.339183463E+00
 -0.100697502E-01  0.338113635E+00
 -0.505388668E-02  0.336721504E+00
 -0.421104196E-04  0.335264756E+00
  0.496532209E-02  0.333703845E+00
  0.996813551E-02  0.331936628E+00
  0.149660297E-01  0.329925582E+00
  0.199586805E-01  0.327613252E+00
  0.249457378E-01  0.324969122E+00
  0.299268235E-01  0.321840915E+00
  0.346904621E-01  0.318376547E+00
  0.394494683E-01  0.314875589E+00
  0.442034937E-01  0.311224846E+00
  0.489521585E-01  0.307280293E+00
  0.536950454E-01  0.302965014E+00
  0.584316961E-01  0.298177180E+00
  0.631616190E-01  0.292809979E+00
  0.678842589E-01  0.286703660E+00
  0.724053234E-01  0.279758420E+00
  0.769195482E-01  0.271883639E+00
  0.814276934E-01  0.263116375E+00
  0.859305784E-01  0.253626965E+00
  0.904290825E-01  0.243532965E+00
  0.949241519E-01  0.233034451E+00
  0.994167775E-01  0.222347538E+00
  0.103908032E+00  0.212190322E+00
  0.108189903E+00  0.201809363E+00
  0.112464227E+00  0.188578592E+00
  0.116733402E+00  0.172450519E+00
  0.120999984E+00  0.154693492E+00
  0.125266686E+00  0.135733668E+00
  0.129536316E+00  0.116328381E+00
  0.133811757E+00  0.975625619E-01
  0.138095871E+00  0.811624777E-01
  0.142137378E+00  0.680841385E-01
  0.146183506E+00  0.561168882E-01
  0.150233954E+00  0.439805456E-01
  0.154288426E+00  0.323327957E-01
  0.158346578E+00  0.209970724E-01
  0.162408113E+00  0.990175297E-02
  0.166472688E+00 -0.105203345E-02
  0.170539990E+00 -0.120570458E-01
  0.174379975E+00 -0.229211479E-01
  0.178222433E+00 -0.335787893E-01
  0.182067379E+00 -0.442520008E-01
  0.185914844E+00 -0.548624645E-01
  0.189764827E+00 -0.653893162E-01
  0.193617374E+00 -0.757959661E-01
  0.197472528E+00 -0.859924183E-01
  0.201330304E+00 -0.958615851E-01
  0.204975635E+00 -0.105194514E+00
  0.208623022E+00 -0.114318025E+00
  0.212272480E+00 -0.123545077E+00
  0.215924010E+00 -0.132712495E+00
  0.219577596E+00 -0.141815608E+00
  0.223233253E+00 -0.150821408E+00
  0.226890996E+00 -0.159662163E+00
  0.230550811E+00 -0.168248969E+00
  0.234011307E+00 -0.176406349E+00
  0.237473488E+00 -0.184401487E+00
  0.240937337E+00 -0.192495341E+00
  0.244402841E+00 -0.200550736E+00
  0.247870013E+00 -0.208559887E+00
  0.251338840E+00 -0.216490876E+00
  0.254809320E+00 -0.224282045E+00
  0.258281469E+00 -0.231851494E+00
  0.261566430E+00 -0.239044923E+00
  0.264852703E+00 -0.246103203E+00
  0.268140346E+00 -0.253257240E+00
  0.271429300E+00 -0.260386053E+00
  0.274719596E+00 -0.267482168E+00
  0.278011203E+00 -0.274515536E+00
  0.281304151E+00 -0.281431815E+00
  0.284598410E+00 -0.288158139E+00
  0.287716597E+00 -0.294557488E+00
  0.290835857E+00 -0.300843953E+00
  0.293956161E+00 -0.307222750E+00
  0.297077566E+00 -0.313587533E+00
  0.300199986E+00 -0.319930519E+00
  0.303323478E+00 -0.326223056E+00
  0.306448042E+00 -0.332415478E+00
  0.309573621E+00 -0.338441454E+00
  0.312533408E+00 -0.344176267E+00
  0.315494031E+00 -0.349810342E+00
  0.318455517E+00 -0.355529274E+00
  0.321417868E+00 -0.361239798E+00
  0.324381024E+00 -0.366935218E+00
  0.327345014E+00 -0.372589534E+00
  0.330309808E+00 -0.378158525E+00
  0.333275437E+00 -0.383583803E+00
  0.336084813E+00 -0.388750771E+00
  0.338894874E+00 -0.393827744E+00
  0.341705561E+00 -0.398983035E+00
  0.344516933E+00 -0.404135056E+00
  0.347328931E+00 -0.409278047E+00
  0.350141585E+00 -0.414388495E+00
  0.352954894E+00 -0.419426076E+00
  0.355768830E+00 -0.424338627E+00
  0.358435363E+00 -0.429019339E+00
  0.361102432E+00 -0.433616438E+00
  0.363770008E+00 -0.438283603E+00
  0.366438121E+00 -0.442950302E+00
  0.369106710E+00 -0.447612796E+00
  0.371775806E+00 -0.452249911E+00
  0.374445379E+00 -0.456826146E+00
  0.377115428E+00 -0.461294013E+00
  0.379646361E+00 -0.465553862E+00
  0.382177681E+00 -0.469736794E+00
  0.384709388E+00 -0.473982942E+00
  0.387241513E+00 -0.478230957E+00
  0.389773995E+00 -0.482478506E+00
  0.392306834E+00 -0.486706903E+00
  0.394840062E+00 -0.490884230E+00
  0.397373676E+00 -0.494965801E+00
  0.399775833E+00 -0.498857726E+00
  0.402178288E+00 -0.502674603E+00
  0.404581040E+00 -0.506544108E+00
  0.406984091E+00 -0.510414079E+00
  0.409387410E+00 -0.514284673E+00
  0.411790997E+00 -0.518140476E+00
  0.414194882E+00 -0.521955017E+00
  0.416599035E+00 -0.525687660E+00
  0.418878943E+00 -0.529251521E+00
  0.421159089E+00 -0.532745473E+00
  0.423439413E+00 -0.536282865E+00
  0.425719976E+00 -0.539820413E+00
  0.428000748E+00 -0.543359984E+00
  0.430281699E+00 -0.546888969E+00
  0.432562858E+00 -0.550385256E+00
  0.434844196E+00 -0.553811476E+00
  0.437008053E+00 -0.557086978E+00
  0.439172089E+00 -0.560296929E+00
  0.441336274E+00 -0.563542302E+00
  0.443500578E+00 -0.566786430E+00
  0.445665032E+00 -0.570032114E+00
  0.447829634E+00 -0.573269547E+00
  0.449994326E+00 -0.576480432E+00
  0.452159196E+00 -0.579631372E+00
  0.454212874E+00 -0.582647007E+00
  0.456266671E+00 -0.585600594E+00
  0.458320558E+00 -0.588582053E+00
  0.460374534E+00 -0.591559852E+00
  0.462428600E+00 -0.594537729E+00
  0.464482754E+00 -0.597507977E+00
  0.466536969E+00 -0.600456427E+00
  0.468591273E+00 -0.603353651E+00
  0.470540404E+00 -0.606131606E+00
  0.472489566E+00 -0.608855845E+00
  0.474438787E+00 -0.611606865E+00
  0.476388067E+00 -0.614356483E+00
  0.478337377E+00 -0.617107970E+00
  0.480286747E+00 -0.619854630E+00
  0.482236147E+00 -0.622583539E+00
  0.484185576E+00 -0.625267062E+00
  0.486035436E+00 -0.627839492E+00
  0.487885326E+00 -0.630356180E+00
  0.489735216E+00 -0.632890306E+00
  0.491585135E+00 -0.635417427E+00
  0.493435055E+00 -0.637941978E+00
  0.495285004E+00 -0.640459834E+00
  0.497134954E+00 -0.642962197E+00
  0.498984903E+00 -0.645427348E+00
  0.500740528E+00 -0.647797365E+00
  0.502496123E+00 -0.650121372E+00
  0.504251719E+00 -0.652464063E+00
  0.506007373E+00 -0.654803718E+00
  0.507762909E+00 -0.657143762E+00
  0.509518504E+00 -0.659479758E+00
  0.511274099E+00 -0.661803298E+00
  0.513029635E+00 -0.664092662E+00
  0.514695823E+00 -0.666292341E+00
  0.516361952E+00 -0.668446788E+00
  0.518028080E+00 -0.670615716E+00
  0.519694149E+00 -0.672779350E+00
  0.521360219E+00 -0.674941661E+00
  0.523026288E+00 -0.677099378E+00
  0.524692297E+00 -0.679246274E+00
  0.526358247E+00 -0.681364054E+00
  0.527939558E+00 -0.683402036E+00
  0.529520810E+00 -0.685399225E+00
  0.531102002E+00 -0.687409415E+00
  0.532683194E+00 -0.689415011E+00
  0.534264266E+00 -0.691419674E+00
  0.535845399E+00 -0.693420521E+00
  0.537426412E+00 -0.695412105E+00
  0.539007366E+00 -0.697377530E+00
  0.540508091E+00 -0.699269153E+00
  0.542008758E+00 -0.701121150E+00
  0.543509305E+00 -0.702982566E+00
  0.545009851E+00 -0.704837988E+00
  0.546510398E+00 -0.706690997E+00
  0.548010826E+00 -0.708539957E+00
  0.549511194E+00 -0.710380899E+00
  0.551011503E+00 -0.712199731E+00
  0.552435756E+00 -0.713953246E+00
  0.553859949E+00 -0.715671962E+00
  0.555284083E+00 -0.717400409E+00
  0.556708097E+00 -0.719124341E+00
  0.558132112E+00 -0.720847183E+00
  0.559556067E+00 -0.722566910E+00
  0.560979962E+00 -0.724280021E+00
  0.562403738E+00 -0.725972734E+00
  0.563755393E+00 -0.727604802E+00
  0.565106928E+00 -0.729205029E+00
  0.566458464E+00 -0.730814442E+00
  0.567809880E+00 -0.732419962E+00
  0.569161296E+00 -0.734024704E+00
  0.570512593E+00 -0.735626721E+00
  0.571863830E+00 -0.737223055E+00
  0.573215008E+00 -0.738800549E+00
  0.574497759E+00 -0.740321368E+00
  0.575780451E+00 -0.741811358E+00
  0.577063084E+00 -0.743308042E+00
  0.578345597E+00 -0.744799978E+00
  0.579628110E+00 -0.746290279E+00
  0.580910504E+00 -0.747777622E+00
  0.582192838E+00 -0.749259826E+00
  0.583475113E+00 -0.750725682E+00
  0.584692478E+00 -0.752139767E+00
  0.585909784E+00 -0.753524191E+00
  0.587127030E+00 -0.754913130E+00
  0.588344157E+00 -0.756296230E+00
  0.589561224E+00 -0.757676839E+00
  0.590778232E+00 -0.759054178E+00
  0.591995180E+00 -0.760427002E+00
  0.593212068E+00 -0.761785579E+00
  0.594367385E+00 -0.763098692E+00
  0.595522642E+00 -0.764388293E+00
  0.596677780E+00 -0.765685524E+00
  0.597832918E+00 -0.766980497E+00
  0.598987937E+00 -0.768275547E+00
  0.600142896E+00 -0.769569041E+00
  0.601297796E+00 -0.770858798E+00
  0.602452636E+00 -0.772133841E+00
  0.603549004E+00 -0.773362796E+00
  0.604645371E+00 -0.774564504E+00
  0.605741680E+00 -0.775768158E+00
  0.606837869E+00 -0.776965194E+00
  0.607933998E+00 -0.778158338E+00
  0.609030128E+00 -0.779347122E+00
  0.610126138E+00 -0.780530846E+00
  0.611222029E+00 -0.781700790E+00
  0.612262547E+00 -0.782830330E+00
  0.613303006E+00 -0.783937293E+00
  0.614343405E+00 -0.785046280E+00
  0.615383685E+00 -0.786147326E+00
  0.616423965E+00 -0.787240120E+00
  0.617464125E+00 -0.788320147E+00
  0.618504226E+00 -0.789382189E+00
  0.619544268E+00 -0.790411146E+00
  0.620531738E+00 -0.791376965E+00
  0.621519148E+00 -0.792288911E+00
  0.622506499E+00 -0.793160141E+00
  0.623493791E+00 -0.793972983E+00
  0.624480963E+00 -0.794715292E+00
  0.625468135E+00 -0.795367294E+00
  0.626455188E+00 -0.795908436E+00
  0.627442241E+00 -0.796299481E+00
  0.628379345E+00 -0.796506331E+00
  0.629316449E+00 -0.796502361E+00
  0.630253434E+00 -0.796236733E+00
  0.631190360E+00 -0.795644910E+00
  0.632127285E+00 -0.794651298E+00
  0.633064091E+00 -0.793162788E+00
  0.634000838E+00 -0.791099815E+00
  0.634937584E+00 -0.788331669E+00
  0.635826886E+00 -0.784868780E+00
  0.636716187E+00 -0.780624345E+00
  0.637605429E+00 -0.775406229E+00
  0.638494611E+00 -0.769168965E+00
  0.639383733E+00 -0.761848717E+00
  0.640272737E+00 -0.753407337E+00
  0.641161740E+00 -0.743928047E+00
  0.642050683E+00 -0.733395980E+00
  0.642894685E+00 -0.722267651E+00
  0.643738627E+00 -0.710621303E+00
  0.644582510E+00 -0.698227974E+00
  0.645426333E+00 -0.685361857E+00
  0.646270156E+00 -0.672131552E+00
  0.647113860E+00 -0.658666449E+00
  0.647957504E+00 -0.645211856E+00
  0.648801148E+00 -0.631769175E+00
  0.649602115E+00 -0.618847783E+00
  0.650403023E+00 -0.606444567E+00
  0.651203871E+00 -0.594145750E+00
  0.652004719E+00 -0.582182081E+00
  0.652805507E+00 -0.570530905E+00
  0.653606176E+00 -0.559204524E+00
  0.654406846E+00 -0.548328277E+00
  0.655207455E+00 -0.537797689E+00
  0.655967593E+00 -0.527922917E+00
  0.656727672E+00 -0.518652735E+00
  0.657487690E+00 -0.509595710E+00
  0.658247650E+00 -0.500902560E+00
  0.659007609E+00 -0.492517855E+00
  0.659767509E+00 -0.484418085E+00
  0.660527289E+00 -0.476681567E+00
  0.661287129E+00 -0.469211456E+00
  0.662008464E+00 -0.462204091E+00
  0.662729800E+00 -0.455623349E+00
  0.663451076E+00 -0.449177912E+00
  0.664172351E+00 -0.442972256E+00
  0.664893508E+00 -0.436963251E+00
  0.665614665E+00 -0.431126920E+00
  0.666335762E+00 -0.425522740E+00
  0.667056859E+00 -0.420084072E+00
  0.667741418E+00 -0.414948088E+00
  0.668425977E+00 -0.410094236E+00
  0.669110477E+00 -0.405313408E+00
  0.669794917E+00 -0.400682989E+00
  0.670479357E+00 -0.396175106E+00
  0.671163738E+00 -0.391772479E+00
  0.671848059E+00 -0.387522439E+00
  0.672532380E+00 -0.383382480E+00
  0.673182070E+00 -0.379454743E+00
  0.673831701E+00 -0.375724592E+00
  0.674481273E+00 -0.372039128E+00
  0.675130844E+00 -0.368455959E+00
  0.675780356E+00 -0.364956403E+00
  0.676429868E+00 -0.361527379E+00
  0.677079260E+00 -0.358205011E+00
  0.677728713E+00 -0.354962519E+00
  0.678345263E+00 -0.351876973E+00
  0.678961754E+00 -0.348935453E+00
  0.679578245E+00 -0.346023048E+00
  0.680194676E+00 -0.343183200E+00
  0.680811107E+00 -0.340402208E+00
  0.681427479E+00 -0.337670418E+00
  0.682043791E+00 -0.335014610E+00
  0.682660103E+00 -0.332418436E+00
  0.683245242E+00 -0.329941686E+00
  0.683830321E+00 -0.327572369E+00
  0.684415400E+00 -0.325222360E+00
  0.685000420E+00 -0.322924667E+00
  0.685585380E+00 -0.320669636E+00
  0.686170340E+00 -0.318449482E+00
  0.686755240E+00 -0.316284602E+00
  0.687340140E+00 -0.314165499E+00
  0.687895417E+00 -0.312139661E+00
  0.688450694E+00 -0.310195100E+00
  0.689005852E+00 -0.308263617E+00
  0.689561069E+00 -0.306370593E+00
  0.690116227E+00 -0.304508243E+00
  0.690671325E+00 -0.302670804E+00
  0.691226423E+00 -0.300874160E+00
  0.691781461E+00 -0.299112392E+00
  0.692308426E+00 -0.297423338E+00
  0.692835391E+00 -0.295796097E+00
  0.693362355E+00 -0.294177264E+00
  0.693889260E+00 -0.292586146E+00
  0.694416106E+00 -0.291017449E+00
  0.694942951E+00 -0.289466502E+00
  0.695469677E+00 -0.287947941E+00
  0.695996404E+00 -0.286458185E+00
  0.696496427E+00 -0.285023080E+00
  0.696996510E+00 -0.283635153E+00
  0.697496533E+00 -0.282252053E+00
  0.697996616E+00 -0.280888727E+00
  0.698496640E+00 -0.279538947E+00
  0.698996663E+00 -0.278205049E+00
  0.699496567E+00 -0.276887810E+00
  0.699996412E+00 -0.275587232E+00
  0.700496435E+00 -0.274297553E+00
  0.700996459E+00 -0.273020019E+00
  0.701496482E+00 -0.271756030E+00
  0.701996446E+00 -0.270503408E+00
  0.702496469E+00 -0.269261685E+00
  0.702996433E+00 -0.268031017E+00
  0.703496456E+00 -0.266809380E+00
  0.703996420E+00 -0.265597396E+00
  0.704496622E+00 -0.264398491E+00
  0.704996705E+00 -0.263210486E+00
  0.705496728E+00 -0.262031822E+00
  0.705996692E+00 -0.260863746E+00
  0.706496596E+00 -0.259703923E+00
  0.706996560E+00 -0.258554220E+00
  0.707496524E+00 -0.257408253E+00
  0.707996488E+00 -0.256262910E+00
  0.708513975E+00 -0.255105889E+00
  0.709031343E+00 -0.253944352E+00
  0.709548712E+00 -0.252795117E+00
  0.710066020E+00 -0.251652731E+00
  0.710583270E+00 -0.250518443E+00
  0.711100519E+00 -0.249392718E+00
  0.711617708E+00 -0.248272131E+00
  0.712134898E+00 -0.247152323E+00
  0.712670207E+00 -0.246018034E+00
  0.713205457E+00 -0.244877985E+00
  0.713740706E+00 -0.243749769E+00
  0.714275897E+00 -0.242627002E+00
  0.714811087E+00 -0.241511398E+00
  0.715346217E+00 -0.240403579E+00
  0.715881348E+00 -0.239300897E+00
  0.716416419E+00 -0.238198995E+00
  0.716970265E+00 -0.237081989E+00
  0.717524052E+00 -0.235959534E+00
  0.718077838E+00 -0.234847978E+00
  0.718631566E+00 -0.233741404E+00
  0.719185293E+00 -0.232641370E+00
  0.719738901E+00 -0.231548187E+00
  0.720292568E+00 -0.230459831E+00
  0.720846117E+00 -0.229370851E+00
  0.721419156E+00 -0.228265990E+00
  0.721992135E+00 -0.227154901E+00
  0.722565055E+00 -0.226053466E+00
  0.723137915E+00 -0.224955767E+00
  0.723710775E+00 -0.223863518E+00
  0.724283576E+00 -0.222777030E+00
  0.724856317E+00 -0.221694590E+00
  0.725429058E+00 -0.220610282E+00
  0.726021886E+00 -0.219509314E+00
  0.726614714E+00 -0.218402117E+00
  0.727207482E+00 -0.217303640E+00
  0.727800190E+00 -0.216208900E+00
  0.728392839E+00 -0.215119454E+00
  0.728985488E+00 -0.214035457E+00
  0.729578078E+00 -0.212955975E+00
  0.730170608E+00 -0.211874625E+00
  0.730783939E+00 -0.210776771E+00
  0.731397271E+00 -0.209673000E+00
  0.732010543E+00 -0.208578104E+00
  0.732623756E+00 -0.207486945E+00
  0.733236909E+00 -0.206401236E+00
  0.733850002E+00 -0.205320820E+00
  0.734463096E+00 -0.204244919E+00
  0.735076129E+00 -0.203166839E+00
  0.735710680E+00 -0.202072099E+00
  0.736345232E+00 -0.200971598E+00
  0.736979723E+00 -0.199879660E+00
  0.737614155E+00 -0.198791615E+00
  0.738248527E+00 -0.197708864E+00
  0.738882840E+00 -0.196631718E+00
  0.739517152E+00 -0.195559399E+00
  0.740151346E+00 -0.194485055E+00
  0.740807891E+00 -0.193394052E+00
  0.741464376E+00 -0.192297910E+00
  0.742120862E+00 -0.191210177E+00
  0.742777228E+00 -0.190126180E+00
  0.743433535E+00 -0.189047166E+00
  0.744089842E+00 -0.187973289E+00
  0.744746029E+00 -0.186903617E+00
  0.745402157E+00 -0.185831142E+00
  0.746081471E+00 -0.184741073E+00
  0.746760666E+00 -0.183644931E+00
  0.747439861E+00 -0.182556108E+00
  0.748118937E+00 -0.181470087E+00
  0.748797953E+00 -0.180388270E+00
  0.749476969E+00 -0.179310501E+00
  0.750155866E+00 -0.178236469E+00
  0.750834703E+00 -0.177158545E+00
  0.751537502E+00 -0.176061936E+00
  0.752240241E+00 -0.174958321E+00
  0.752942860E+00 -0.173860934E+00
  0.753645480E+00 -0.172765103E+00
  0.754347980E+00 -0.171672387E+00
  0.755050421E+00 -0.170582318E+00
  0.755752802E+00 -0.169494896E+00
  0.756455123E+00 -0.168402647E+00
  0.757182240E+00 -0.167290935E+00
  0.757909298E+00 -0.166172061E+00
  0.758636236E+00 -0.165059882E+00
  0.759363174E+00 -0.163950662E+00
  0.760089993E+00 -0.162846268E+00
  0.760816693E+00 -0.161746856E+00
  0.761543393E+00 -0.160652739E+00
  0.762269974E+00 -0.159556597E+00
  0.763022244E+00 -0.158443951E+00
  0.763774455E+00 -0.157326790E+00
  0.764526606E+00 -0.156219127E+00
  0.765278637E+00 -0.155116601E+00
  0.766030610E+00 -0.154020460E+00
  0.766782522E+00 -0.152930702E+00
  0.767534316E+00 -0.151847016E+00
  0.768285990E+00 -0.150762085E+00
  0.769064367E+00 -0.149660961E+00
  0.769842625E+00 -0.148555322E+00
  0.770620763E+00 -0.147459025E+00
  0.771398842E+00 -0.146367087E+00
  0.772176802E+00 -0.145281066E+00
  0.772954702E+00 -0.144200650E+00
  0.773732543E+00 -0.143124906E+00
  0.774510264E+00 -0.142047293E+00
  0.775315523E+00 -0.140952708E+00
  0.776120663E+00 -0.139852363E+00
  0.776925743E+00 -0.138760736E+00
  0.777730763E+00 -0.137673470E+00
  0.778535604E+00 -0.136592431E+00
  0.779340386E+00 -0.135517777E+00
  0.780145109E+00 -0.134449350E+00
  0.780949652E+00 -0.133380923E+00
  0.781782866E+00 -0.132297394E+00
  0.782615900E+00 -0.131210127E+00
  0.783448875E+00 -0.130133448E+00
  0.784281731E+00 -0.129062375E+00
  0.785114467E+00 -0.127998152E+00
  0.785947084E+00 -0.126940780E+00
  0.786779583E+00 -0.125889169E+00
  0.787612021E+00 -0.124837870E+00
  0.788474023E+00 -0.123771467E+00
  0.789335907E+00 -0.122701172E+00
  0.790197670E+00 -0.121641776E+00
  0.791059315E+00 -0.120588453E+00
  0.791920841E+00 -0.119542603E+00
  0.792782307E+00 -0.118504071E+00
  0.793643594E+00 -0.117471612E+00
  0.794504762E+00 -0.116439619E+00
  0.795396626E+00 -0.115392524E+00
  0.796288311E+00 -0.114339979E+00
  0.797179937E+00 -0.113297087E+00
  0.798071384E+00 -0.112258244E+00
  0.798962772E+00 -0.111225317E+00
  0.799853981E+00 -0.110198463E+00
  0.800745010E+00 -0.109176436E+00
  0.801635981E+00 -0.108155342E+00
  0.802558720E+00 -0.107120080E+00
  0.803481340E+00 -0.106080303E+00
  0.804403782E+00 -0.105051736E+00
  0.805326104E+00 -0.104028930E+00
  0.806248248E+00 -0.103013130E+00
  0.807170272E+00 -0.102004182E+00
  0.808092177E+00 -0.101000216E+00
  0.809013903E+00 -0.999970283E-01
  0.809968591E+00 -0.989792048E-01
  0.810923159E+00 -0.979556203E-01
  0.811877549E+00 -0.969423122E-01
  0.812831759E+00 -0.959338308E-01
  0.813785791E+00 -0.949317332E-01
  0.814739704E+00 -0.939366421E-01
  0.815693498E+00 -0.929457550E-01
  0.816647053E+00 -0.919565807E-01
  0.817634821E+00 -0.909530818E-01
  0.818622410E+00 -0.899441333E-01
  0.819609821E+00 -0.889459282E-01
  0.820597053E+00 -0.879528613E-01
  0.821584165E+00 -0.869669567E-01
  0.822571039E+00 -0.859891486E-01
  0.823557734E+00 -0.850163229E-01
  0.824544311E+00 -0.840469227E-01
  0.825566292E+00 -0.830644435E-01
  0.826588035E+00 -0.820760477E-01
  0.827609658E+00 -0.810974610E-01
  0.828631043E+00 -0.801215214E-01
  0.829652250E+00 -0.791494742E-01
  0.830673277E+00 -0.781817867E-01
  0.831694126E+00 -0.772158119E-01
  0.832714736E+00 -0.762513942E-01
  0.833772123E+00 -0.752740532E-01
  0.834829271E+00 -0.742920411E-01
  0.835886240E+00 -0.733243536E-01
  0.836942971E+00 -0.723642955E-01
  0.837999523E+00 -0.714131125E-01
  0.839055836E+00 -0.704709601E-01
  0.840111971E+00 -0.695327003E-01
  0.841167867E+00 -0.685973988E-01
  0.842261910E+00 -0.676485512E-01
  0.843355656E+00 -0.666919186E-01
  0.844449222E+00 -0.657466521E-01
  0.845542550E+00 -0.648062125E-01
  0.846635640E+00 -0.638729351E-01
  0.847728491E+00 -0.629480657E-01
  0.848821104E+00 -0.620275559E-01
  0.849913538E+00 -0.611124956E-01
  0.851045430E+00 -0.601859134E-01
  0.852177083E+00 -0.592526361E-01
  0.853308439E+00 -0.583313478E-01
  0.854439557E+00 -0.574141077E-01
  0.855570436E+00 -0.565021615E-01
  0.856701076E+00 -0.555967548E-01
  0.857831478E+00 -0.546932165E-01
  0.858961582E+00 -0.537938821E-01
  0.860132694E+00 -0.528825588E-01
  0.861303508E+00 -0.519646959E-01
  0.862474084E+00 -0.510606905E-01
  0.863644361E+00 -0.501629132E-01
  0.864814401E+00 -0.492735437E-01
  0.865984082E+00 -0.483938278E-01
  0.867153525E+00 -0.475186273E-01
  0.868322730E+00 -0.466510561E-01
  0.869534433E+00 -0.457741429E-01
  0.870745838E+00 -0.448919357E-01
  0.871956944E+00 -0.440248317E-01
  0.873167694E+00 -0.431639557E-01
  0.874378204E+00 -0.423113320E-01
  0.875588357E+00 -0.414675832E-01
  0.876798213E+00 -0.406272599E-01
  0.878007770E+00 -0.397942546E-01
  0.879261434E+00 -0.389508172E-01
  0.880514801E+00 -0.381002176E-01
  0.881767809E+00 -0.372631640E-01
  0.883020520E+00 -0.364304701E-01
  0.884272814E+00 -0.356041600E-01
  0.885524809E+00 -0.347850121E-01
  0.886776447E+00 -0.339672656E-01
  0.888027787E+00 -0.331566813E-01
  0.889324963E+00 -0.323345752E-01
  0.890621722E+00 -0.315046839E-01
  0.891918123E+00 -0.306884944E-01
  0.893214166E+00 -0.298771316E-01
  0.894509852E+00 -0.290730868E-01
  0.895805120E+00 -0.282774500E-01
  0.897100031E+00 -0.274850829E-01
  0.898394525E+00 -0.267025250E-01
  0.899736643E+00 -0.259107807E-01
  0.901078343E+00 -0.251134311E-01
  0.902419627E+00 -0.243324302E-01
  0.903760552E+00 -0.235576574E-01