TITLE     = "u'v'/Uref^2 profiles CFL3D M=0.875, SST-2003 model"
VARIABLES = "uv","z-z0"
ZONE T="CFL3D, Slc: X=-0.25"
 0.000000000E+00 0.000000000E+00
 0.000000000E+00 3.218650818E-06
 0.000000000E+00 6.467103958E-06
 0.000000000E+00 9.685754776E-06
 0.000000000E+00 1.293420792E-05
 -7.701486671E-11 1.615285873E-05
 -8.797164108E-10 1.940131187E-05
 -2.905665708E-09 2.264976501E-05
 -1.713916831E-08 2.589821815E-05
 -3.988277442E-08 2.917647362E-05
 -1.328485979E-07 3.245472908E-05
 -2.579186571E-07 3.573298454E-05
 -6.131238592E-07 3.901124001E-05
 -1.059855094E-06 4.231929779E-05
 -2.064022738E-06 4.562735558E-05
 -3.286108722E-06 4.896521568E-05
 -5.563239483E-06 5.230307579E-05
 -8.228174011E-06 5.564093590E-05
 -1.262878686E-05 5.900859833E-05
 -1.771244206E-05 6.240606308E-05
 -2.520060480E-05 6.580352783E-05
 -3.367200043E-05 6.923079491E-05
 -4.507326230E-05 7.268786430E-05
 -5.761524881E-05 7.614493370E-05
 -7.314497634E-05 7.963180542E-05
 -8.980243729E-05 8.311867714E-05
 -1.090277146E-04 8.663535118E-05
 -1.294936083E-04 9.021162987E-05
 -1.516798948E-04 9.378790855E-05
 -1.743348694E-04 9.736418724E-05
 -1.983237744E-04 1.010000706E-04
 -2.225035423E-04 1.046657562E-04
 -2.470473410E-04 1.083314419E-04
 -2.713044814E-04 1.120567322E-04
 -2.953630465E-04 1.157820225E-04
 -3.188210831E-04 1.195669174E-04
 -3.419497225E-04 1.233518124E-04
 -3.640720097E-04 1.271963120E-04
 -3.859661520E-04 1.310706139E-04
 -4.064548120E-04 1.349747181E-04
 -4.267514450E-04 1.389086246E-04
 -4.456255410E-04 1.429021358E-04
 -4.643650609E-04 1.469254494E-04
 -4.815041029E-04 1.509785652E-04
 -4.987380817E-04 1.550912857E-04
 -5.143930903E-04 1.592338085E-04
 -5.300494377E-04 1.634061337E-04
 -5.442498950E-04 1.676380634E-04
 -5.584693281E-04 1.719295979E-04
 -5.713975406E-04 1.762509346E-04
 -5.841996172E-04 1.806020737E-04
 -5.962130381E-04 1.850128174E-04
 -6.080823368E-04 1.894831657E-04
 -6.192934816E-04 1.940131187E-04
 -6.302107358E-04 1.985728741E-04
 -6.407183828E-04 2.032220364E-04
 -6.507475046E-04 2.079010010E-04
 -6.600859342E-04 2.126097679E-04
 -6.691957824E-04 2.174079418E-04
 -6.779403193E-04 2.222657204E-04
 -6.863732706E-04 2.271831036E-04
 -6.945435307E-04 2.321600914E-04
 -7.023368962E-04 2.371966839E-04
 -7.099211216E-04 2.422928810E-04
 -7.171409670E-04 2.474486828E-04
 -7.242643042E-04 2.526938915E-04
 -7.309655775E-04 2.579689026E-04
 -7.376545109E-04 2.633631229E-04
 -7.439246983E-04 2.687871456E-04
 -7.501886575E-04 2.743005753E-04
 -7.560737431E-04 2.798736095E-04
 -7.620199467E-04 2.855658531E-04
 -7.675457164E-04 2.912878990E-04
 -7.731274818E-04 2.970993519E-04
 -7.783620385E-04 3.030002117E-04
 -7.836443256E-04 3.089904785E-04
 -7.886242820E-04 3.150701523E-04
 -7.936039474E-04 3.212094307E-04
 -7.983304095E-04 3.274381161E-04
 -8.030625177E-04 3.337562084E-04
 -8.075796068E-04 3.401637077E-04
 -8.121008868E-04 3.466904163E-04
 -8.164086612E-04 3.532767296E-04
 -8.206936182E-04 3.599524498E-04
 -8.248488302E-04 3.667473793E-04
 -8.289573016E-04 3.736317158E-04
 -8.329465054E-04 3.806352615E-04
 -8.368680137E-04 3.876984119E-04
 -8.407142013E-04 3.949105740E-04
 -8.444976411E-04 4.022121429E-04
 -8.481906261E-04 4.096031189E-04
 -8.518310497E-04 4.171133041E-04
 -8.554127999E-04 4.247426987E-04
 -8.589323261E-04 4.324913025E-04
 -8.624053444E-04 4.403591156E-04
 -8.658075240E-04 4.483461380E-04
 -8.691623225E-04 4.564225674E-04
 -8.724575164E-04 4.646480083E-04
 -8.757279720E-04 4.729926586E-04
 -8.789245039E-04 4.814565182E-04
 -8.821196971E-04 4.900693893E-04
 -8.852303145E-04 4.988014698E-04
 -8.883514674E-04 5.076825619E-04
 -8.913745987E-04 5.166828632E-04
 -8.944182191E-04 5.258321762E-04
 -8.973649819E-04 5.351006985E-04
 -9.003519663E-04 5.445480347E-04
 -9.032330709E-04 5.541145802E-04
 -9.061606252E-04 5.638599396E-04
 -9.089845698E-04 5.737245083E-04
 -9.118543239E-04 5.837678909E-04
 -9.146254743E-04 5.939602852E-04
 -9.174323059E-04 6.043016911E-04
 -9.201625944E-04 6.148219109E-04
 -9.229251882E-04 6.254911423E-04
 -9.255990735E-04 6.363093853E-04
 -9.283195250E-04 6.473362446E-04
 -9.309594170E-04 6.585121155E-04
 -9.336433141E-04 6.698966026E-04
 -9.362451965E-04 6.814301014E-04
 -9.388821200E-04 6.931424141E-04
 -9.414575179E-04 7.050633430E-04
 -9.440627182E-04 7.171630859E-04
 -9.466076153E-04 7.294714451E-04
 -9.491802193E-04 7.419586182E-04
 -9.517003782E-04 7.546544075E-04
 -9.542474872E-04 7.675588131E-04
 -9.567419183E-04 7.806718349E-04
 -9.592562565E-04 7.939636707E-04
 -9.617300238E-04 8.074939251E-04
 -9.642246296E-04 8.212327957E-04
 -9.666741826E-04 8.351802826E-04
 -9.691459127E-04 8.493661880E-04
 -9.715781780E-04 8.637905121E-04
 -9.740267415E-04 8.784234524E-04
 -9.764408460E-04 8.932948112E-04
 -9.788764874E-04 9.084343910E-04
 -9.812738281E-04 9.237825871E-04
 -9.836900281E-04 9.393990040E-04
 -9.860740975E-04 9.552538395E-04
 -9.884743486E-04 9.713768959E-04
 -9.908482898E-04 9.877681732E-04
 -9.932343382E-04 1.004427671E-03
 -9.955945425E-04 1.021355391E-03
 -9.979658062E-04 1.038551331E-03
 -1.000313438E-03 1.056015491E-03
 -1.002672361E-03 1.073777676E-03
 -1.005008002E-03 1.091808081E-03
 -1.007356332E-03 1.110166311E-03
 -1.009682426E-03 1.128792763E-03
 -1.012015273E-03 1.147717237E-03
 -1.014334150E-03 1.166969538E-03
 -1.016656170E-03 1.186519861E-03
 -1.018964569E-03 1.206398010E-03
 -1.021277043E-03 1.226603985E-03
 -1.023578225E-03 1.247137785E-03
 -1.025877078E-03 1.267999411E-03
 -1.028171275E-03 1.289218664E-03
 -1.030460815E-03 1.310795546E-03
 -1.032746164E-03 1.332700253E-03
 -1.035021851E-03 1.354962587E-03
 -1.037299982E-03 1.377582550E-03
 -1.039563678E-03 1.400589943E-03
 -1.041832613E-03 1.423954964E-03
 -1.044082455E-03 1.447707415E-03
 -1.046346384E-03 1.471877098E-03
 -1.048582140E-03 1.496404409E-03
 -1.050837454E-03 1.521378756E-03
 -1.053062384E-03 1.546740532E-03
 -1.055304543E-03 1.572489738E-03
 -1.057515736E-03 1.598685980E-03
 -1.059749397E-03 1.625299454E-03
 -1.061946037E-03 1.652359962E-03
 -1.064170385E-03 1.679867506E-03
 -1.066350844E-03 1.707822084E-03
 -1.068561454E-03 1.736223698E-03
 -1.070727012E-03 1.765102148E-03
 -1.072926563E-03 1.794457436E-03
 -1.075076987E-03 1.824319363E-03
 -1.077259658E-03 1.854628325E-03
 -1.079393202E-03 1.885473728E-03
 -1.081560855E-03 1.916795969E-03
 -1.083673444E-03 1.948624849E-03
 -1.085823751E-03 1.980990171E-03
 -1.087920275E-03 2.013921738E-03
 -1.090051956E-03 2.047359943E-03
 -1.092126942E-03 2.081364393E-03
 -1.094238483E-03 2.115905285E-03
 -1.096292282E-03 2.151042223E-03
 -1.098383567E-03 2.186745405E-03
 -1.100411289E-03 2.223014832E-03
 -1.102479291E-03 2.259910107E-03
 -1.104482566E-03 2.297401428E-03
 -1.106525189E-03 2.335518599E-03
 -1.108503086E-03 2.374291420E-03
 -1.110517769E-03 2.413660288E-03
 -1.112465165E-03 2.453684807E-03
 -1.114451326E-03 2.494364977E-03
 -1.116367057E-03 2.535700798E-03
 -1.118323184E-03 2.577751875E-03
 -1.120207249E-03 2.620488405E-03
 -1.122130197E-03 2.663940191E-03
 -1.123978873E-03 2.708107233E-03
 -1.125864103E-03 2.752959728E-03
 -1.127674477E-03 2.798587084E-03
 -1.129522570E-03 2.844959497E-03
 -1.131293480E-03 2.892106771E-03
 -1.133101410E-03 2.940028906E-03
 -1.134829363E-03 2.988755703E-03
 -1.136593171E-03 3.038257360E-03
 -1.138275606E-03 3.088593483E-03
 -1.139992964E-03 3.139734268E-03
 -1.141626621E-03 3.191739321E-03
 -1.143296249E-03 3.244638443E-03
 -1.144878450E-03 3.298372030E-03
 -1.146493596E-03 3.352969885E-03
 -1.148021431E-03 3.408491611E-03
 -1.149581163E-03 3.464937210E-03
 -1.151051954E-03 3.522336483E-03
 -1.152551617E-03 3.580659628E-03
 -1.153961290E-03 3.639936447E-03
 -1.155397738E-03 3.700196743E-03
 -1.156743267E-03 3.761470318E-03
 -1.158112776E-03 3.823757172E-03
 -1.159389853E-03 3.887057304E-03
 -1.160687767E-03 3.951400518E-03
 -1.161891967E-03 4.016786814E-03
 -1.163114677E-03 4.083275795E-03
 -1.164243440E-03 4.150897264E-03
 -1.165386289E-03 4.219591618E-03
 -1.166434027E-03 4.289448261E-03
 -1.167492592E-03 4.360437393E-03
 -1.168454182E-03 4.432588816E-03
 -1.169423922E-03 4.505962133E-03
 -1.170295756E-03 4.580557346E-03
 -1.171171200E-03 4.656344652E-03
 -1.171947457E-03 4.733443260E-03
 -1.172723481E-03 4.811763763E-03
 -1.173398574E-03 4.891395569E-03
 -1.174069708E-03 4.972338676E-03
 -1.174638048E-03 5.054622889E-03
 -1.175198238E-03 5.138278008E-03
 -1.175654004E-03 5.223304033E-03
 -1.176096965E-03 5.309730768E-03
 -1.176433754E-03 5.397617817E-03
 -1.176752732E-03 5.486935377E-03
 -1.176963677E-03 5.577743053E-03
 -1.177151804E-03 5.670011044E-03
 -1.177229686E-03 5.763858557E-03
 -1.177279511E-03 5.859255791E-03
 -1.177216880E-03 5.956202745E-03
 -1.177120255E-03 6.054759026E-03
 -1.176909078E-03 6.154954433E-03
 -1.176657737E-03 6.256788969E-03
 -1.176289399E-03 6.360322237E-03
 -1.175887301E-03 6.465584040E-03
 -1.175353071E-03 6.572574377E-03
 -1.174816629E-03 6.681323051E-03
 -1.174230827E-03 6.791889668E-03
 -1.173539669E-03 6.904274225E-03
 -1.172693679E-03 7.018506527E-03
 -1.171741053E-03 7.134646177E-03
 -1.170599600E-03 7.252722979E-03
 -1.169435447E-03 7.372707129E-03
 -1.168174553E-03 7.494747639E-03
 -1.166887581E-03 7.618725300E-03
 -1.165500958E-03 7.744818926E-03
 -1.164083951E-03 7.872968912E-03
 -1.162565430E-03 8.003234863E-03
 -1.161011285E-03 8.135706186E-03
 -1.159353182E-03 8.270323277E-03
 -1.157655963E-03 8.407175541E-03
 -1.155851176E-03 8.546292782E-03
 -1.154003432E-03 8.687704802E-03
 -1.152044628E-03 8.831501007E-03
 -1.150039257E-03 8.977621794E-03
 -1.147920033E-03 9.126186371E-03
 -1.145749120E-03 9.277224541E-03
 -1.143461443E-03 9.430736303E-03
 -1.141117653E-03 9.586811066E-03
 -1.138653723E-03 9.745448828E-03
 -1.136129140E-03 9.906738997E-03
 -1.133480924E-03 1.007068157E-02
 -1.130767632E-03 1.023733616E-02
 -1.127926284E-03 1.040676236E-02
 -1.125015318E-03 1.057898998E-02
 -1.121971873E-03 1.075407863E-02
 -1.118854154E-03 1.093205810E-02
 -1.115599647E-03 1.111298800E-02
 -1.112265512E-03 1.129689813E-02
 -1.108789002E-03 1.148387790E-02
 -1.105227857E-03 1.167392731E-02
 -1.101518399E-03 1.186716557E-02
 -1.097719069E-03 1.206356287E-02
 -1.093765721E-03 1.226323843E-02
 -1.089716097E-03 1.246619225E-02
 -1.085505937E-03 1.267254353E-02
 -1.081193099E-03 1.288229227E-02
 -1.076712972E-03 1.309552789E-02
 -1.072123065E-03 1.331228018E-02
 -1.067357836E-03 1.353263855E-02
 -1.062475960E-03 1.375663280E-02
 -1.057410496E-03 1.398435235E-02
 -1.052220701E-03 1.421582699E-02
 -1.046838122E-03 1.445114613E-02
 -1.041322714E-03 1.469036937E-02
 -1.035605208E-03 1.493355632E-02
 -1.029746956E-03 1.518073678E-02
 -1.023674151E-03 1.543205976E-02
 -1.017451519E-03 1.568752527E-02
 -1.011004206E-03 1.594722271E-02
 -1.004396239E-03 1.621124148E-02
 -9.975516004E-04 1.647961140E-02
 -9.905369952E-04 1.675242186E-02
 -9.832709329E-04 1.702979207E-02
 -9.758243104E-04 1.731172204E-02
 -9.681121446E-04 1.759833097E-02
 -9.602062637E-04 1.788970828E-02
 -9.520194726E-04 1.818591356E-02
 -9.436279652E-04 1.848697662E-02
 -9.349370957E-04 1.879307628E-02
 -9.260257357E-04 1.910424232E-02
 -9.167965618E-04 1.942056417E-02
 -9.073310066E-04 1.974213123E-02
 -8.975255769E-04 2.006903291E-02
 -8.874665364E-04 2.040132880E-02
 -8.770423010E-04 2.073913813E-02
 -8.663427434E-04 2.108255029E-02
 -8.552480722E-04 2.143165469E-02
 -8.438537479E-04 2.178657055E-02
 -8.320311317E-04 2.214732766E-02
 -8.198811556E-04 2.251410484E-02
 -8.072621422E-04 2.288693190E-02
 -7.942857919E-04 2.326592803E-02
 -7.807910442E-04 2.365124226E-02
 -7.669026963E-04 2.404293418E-02
 -7.524429238E-04 2.444112301E-02
 -7.375513669E-04 2.484586835E-02
 -7.220268599E-04 2.525737882E-02
 -7.060290664E-04 2.567568421E-02
 -6.893390091E-04 2.610093355E-02
 -6.721377140E-04 2.653321624E-02
 -6.541879848E-04 2.697271109E-02
 -6.357058883E-04 2.741944790E-02
 -6.164453225E-04 2.787363529E-02
 -5.966622266E-04 2.833530307E-02
 -5.761223147E-04 2.880465984E-02
 -5.551266368E-04 2.928176522E-02
 -5.334865418E-04 2.976682782E-02
 -5.116271204E-04 3.025987744E-02
 -4.894864978E-04 3.076115251E-02
 -4.674192751E-04 3.127071261E-02
 -4.455443413E-04 3.178873658E-02
 -4.239673144E-04 3.231534362E-02
 -4.029577831E-04 3.285068274E-02
 -3.824537562E-04 3.339490294E-02
 -3.628471750E-04 3.394815326E-02
 -3.424766182E-04 3.451055288E-02
 -3.207380942E-04 3.508234024E-02
 -2.980288991E-04 3.566354513E-02
 -2.737697796E-04 3.625443578E-02
 -2.492525673E-04 3.685510159E-02
 -2.246093645E-04 3.746575117E-02
 -1.994223858E-04 3.808647394E-02
 -1.735391124E-04 3.871756792E-02
 -1.474879973E-04 3.935906291E-02
 -1.213433643E-04 4.001125693E-02
 -9.610689449E-05 4.067423940E-02
 -7.240914420E-05 4.134821892E-02
 -5.136340405E-05 4.203337431E-02
 -3.443995229E-05 4.272991419E-02
 -2.082438732E-05 4.343798757E-02
 -1.237827291E-05 4.415783286E-02
 -6.105169632E-06 4.488956928E-02
 -3.381814395E-06 4.563349485E-02
 -1.427335519E-06 4.638975859E-02
 -8.501662592E-07 4.715856910E-02
 -4.072829256E-07 4.794010520E-02
 -2.631177551E-07 4.873463511E-02
 -1.432799053E-07 4.954230785E-02
 -8.801755058E-08 5.036345124E-02
 -4.352027361E-08 5.119815469E-02
 -2.588949322E-08 5.204674602E-02
 -1.170647845E-08 5.290940404E-02
 -7.059623996E-09 5.378639698E-02
 -3.273250559E-09 5.467790365E-02
 -2.159666446E-09 5.558425188E-02
 -1.240919589E-09 5.650559068E-02
 -9.919494115E-10 5.744224787E-02
 -7.842324568E-10 5.839440227E-02
 -7.335231866E-10 5.936244130E-02
 -6.910282346E-10 6.034645438E-02
 -6.833310029E-10 6.134688854E-02
 -6.771892491E-10 6.236386299E-02
 -6.783641426E-10 6.339776516E-02
 -6.798324126E-10 6.444877386E-02
 -6.827558519E-10 6.551724672E-02
 -6.857449053E-10 6.660345197E-02
 -6.889990245E-10 6.770771742E-02
 -6.922760143E-10 6.883025169E-02
 -6.955875875E-10 6.997147202E-02
 -6.989100965E-10 7.113158703E-02
 -7.022250004E-10 7.231101394E-02
 -7.055429574E-10 7.350996137E-02
 -7.088467591E-10 7.472887635E-02
 -7.121456203E-10 7.596796751E-02
 -7.154299375E-10 7.722765207E-02
 -7.187009321E-10 7.850822806E-02
 -7.219589371E-10 7.981011271E-02
 -7.251942380E-10 8.113354445E-02
 -7.284183812E-10 8.247900009E-02
 -7.316098838E-10 8.384674788E-02
 -7.347923936E-10 8.523726463E-02
 -7.379314382E-10 8.665078878E-02
 -7.410639880E-10 8.808785677E-02
 -7.441418037E-10 8.954870701E-02
 -7.472159558E-10 9.103390574E-02
 -7.502233834E-10 9.254369140E-02
 -7.532303115E-10 9.407857060E-02
 -7.561577475E-10 9.563890100E-02
 -7.590880702E-10 9.722524881E-02
 -7.619256337E-10 9.883782268E-02
 -7.647695810E-10 1.004772484E-01
 -7.675070579E-10 1.021438241E-01
 -7.702549709E-10 1.038381457E-01
 -7.728819251E-10 1.055605412E-01
 -7.755233677E-10 1.073116064E-01
 -7.780291411E-10 1.090916991E-01
 -7.805537883E-10 1.109014153E-01
 -7.829275561E-10 1.127411127E-01
 -7.853246942E-10 1.146114469E-01
 -7.875552988E-10 1.165127158E-01
 -7.898139920E-10 1.184456944E-01
 -7.918903866E-10 1.204106808E-01
 -7.939998659E-10 1.224084198E-01
 -7.959108372E-10 1.244392097E-01
 -7.978598338E-10 1.265038252E-01
 -7.995941687E-10 1.286026835E-01
 -8.013716912E-10 1.307364702E-01
 -8.029182319E-10 1.329056025E-01
 -8.045132338E-10 1.351108551E-01
 -8.058608780E-10 1.373526454E-01
 -8.072623681E-10 1.396318078E-01
 -8.084001801E-10 1.419487000E-01
 -8.095972781E-10 1.443042159E-01
 -8.105144889E-10 1.466987729E-01
 -8.114964811E-10 1.491332054E-01
 -8.121827100E-10 1.516079307E-01
 -8.129392715E-10 1.541239023E-01
 -8.133843599E-10 1.566815376E-01
 -8.139053320E-10 1.592818499E-01
 -8.140995100E-10 1.619251370E-01
 -8.143751784E-10 1.646125913E-01
 -8.143092312E-10 1.673445106E-01
 -8.143303809E-10 1.701219678E-01
 -8.139954821E-10 1.729454398E-01
 -8.137533980E-10 1.758159995E-01
 -8.131413876E-10 1.787340641E-01
 -8.126276319E-10 1.817008257E-01
 -8.117309602E-10 1.847166419E-01
 -8.109381500E-10 1.877827644E-01
 -8.097498783E-10 1.908997297E-01
 -8.086710190E-10 1.940686107E-01
 -8.071849300E-10 1.972900629E-01
 -8.058138601E-10 2.005650997E-01
 -8.040247357E-10 2.038944960E-01
 -8.023561815E-10 2.072793841E-01
 -8.002594698E-10 2.107203007E-01
 -7.982888794E-10 2.142186761E-01
 -7.958809722E-10 2.177749276E-01
 -7.936046265E-10 2.213904858E-01
 -7.908828037E-10 2.250660062E-01
 -7.882980380E-10 2.288027406E-01
 -7.852606343E-10 2.326014638E-01
 -7.823657833E-10 2.364635468E-01
 -7.790121881E-10 2.403895259E-01
 -7.758063636E-10 2.443810701E-01
 -7.721367434E-10 2.484387159E-01
 -7.686203896E-10 2.525640130E-01
 -7.646362432E-10 2.567577362E-01
 -7.608106922E-10 2.610213161E-01
 -7.565144622E-10 2.653556466E-01
 -7.523822121E-10 2.697621584E-01
 -7.477775066E-10 2.742418051E-01
 -7.433420546E-10 2.787960768E-01
 -7.384337031E-10 2.834258676E-01
 -7.336997121E-10 2.881329060E-01
 -7.284934322E-10 2.929179072E-01
 -7.234666199E-10 2.977827787E-01
 -7.179692951E-10 3.027282357E-01
 -7.126566004E-10 3.077562451E-01
 -7.068763352E-10 3.128675222E-01
 -7.012858627E-10 3.180640936E-01
 -6.952315945E-10 3.233468533E-01
 -6.893721705E-10 3.287177086E-01
 -6.830542798E-10 3.341775537E-01
 -6.769360628E-10 3.397285342E-01
 -6.703655964E-10 3.453715444E-01
 -6.639996331E-10 3.511086106E-01
 -6.571888589E-10 3.569408655E-01
 -6.505872507E-10 3.628703952E-01
 -6.435492694E-10 3.688982725E-01
 -6.367249505E-10 3.750267029E-01
 -6.294737509E-10 3.812567592E-01
 -6.224407656E-10 3.875907063E-01
 -6.149911691E-10 3.940297365E-01
 -6.077640613E-10 4.005761743E-01
 -6.001317776E-10 4.072311521E-01
 -5.927259239E-10 4.139972329E-01
 -5.849272178E-10 4.208754301E-01
 -5.773588274E-10 4.278684855E-01
 -5.694106298E-10 4.349774122E-01
 -5.616963006E-10 4.422050714E-01
 -5.536159864E-10 4.495525360E-01
 -5.457730379E-10 4.570226073E-01
 -5.375785372E-10 4.646165967E-01
 -5.296244554E-10 4.723373055E-01
 -5.213339760E-10 4.801860452E-01
 -5.132866909E-10 4.881657958E-01
 -5.049186624E-10 4.962779284E-01
 -4.967963818E-10 5.045254230E-01
 -4.883695670E-10 5.129096508E-01
 -4.801904430E-10 5.214339495E-01
 -4.717233271E-10 5.300995708E-01
 -4.635058171E-10 5.389098525E-01
 -4.550171906E-10 5.478662252E-01
 -4.467794468E-10 5.569721460E-01
 -4.382876007E-10 5.662291050E-01
 -4.300476919E-10 5.756406188E-01
 -4.215709171E-10 5.852082372E-01
 -4.133466625E-10 5.949355960E-01
 -4.049028612E-10 6.048242450E-01
 -3.967116913E-10 6.148780584E-01
 -3.883181277E-10 6.250987053E-01
 -3.801771120E-10 6.354899406E-01
 -3.718508557E-10 6.460535526E-01
 -3.637763979E-10 6.567935944E-01
 -3.555337413E-10 6.677117348E-01
 -3.475417454E-10 6.788122654E-01
 -3.393982595E-10 6.900969744E-01
 -3.315040187E-10 7.015700340E-01
 -3.234746637E-10 7.132335901E-01
 -3.156926387E-10 7.250918150E-01
 -3.077916255E-10 7.371467352E-01
 -3.001355275E-10 7.494029999E-01
 -2.923759845E-10 7.618627548E-01
 -2.848586367E-10 7.745305300E-01
 -2.772531649E-10 7.874084711E-01
 -2.698865575E-10 8.005017042E-01
 -2.624473971E-10 8.138118982E-01
 -2.552421330E-10 8.273445368E-01
 -2.479801087E-10 8.411017656E-01
 -2.409458744E-10 8.550888300E-01
 -2.338705340E-10 8.693079948E-01
 -2.277450173E-10 8.822281361E-01
 -2.270168914E-10 8.837646246E-01
 -2.201368393E-10 8.984612226E-01
 -2.134712546E-10 9.134032726E-01
 -2.067951088E-10 9.285932779E-01
 -2.003252286E-10 9.440371990E-01
 -1.938595534E-10 9.597373009E-01
 -1.875923028E-10 9.756997824E-01
 -1.813427047E-10 9.919271469E-01
 -1.752838985E-10 1.008425713E+00
 -1.692551099E-10 1.025197983E+00
 -1.634098135E-10 1.042250633E+00
 -1.576056508E-10 1.059586167E+00
 -1.519779580E-10 1.077211618E+00
 -1.464014049E-10 1.095129371E+00
 -1.409946049E-10 1.113346815E+00
 -1.356477985E-10 1.131866455E+00
 -1.304643754E-10 1.150695682E+00
 -1.253487175E-10 1.169837356E+00
 -1.203902672E-10 1.189299107E+00
 -1.155063337E-10 1.209083796E+00
 -1.107737027E-10 1.229199290E+00
 -1.061213895E-10 1.249648571E+00
 -1.016147583E-10 1.270439625E+00
 -9.719321181E-11 1.291575909E+00
 -9.291187958E-11 1.313065529E+00
 -8.871958029E-11 1.334911942E+00
 -8.466227025E-11 1.357123494E+00
 -8.069706015E-11 1.379703879E+00
 -7.686178777E-11 1.402661681E+00
 -7.312089823E-11 1.426000476E+00
 -6.950499204E-11 1.449729681E+00
 -6.598493280E-11 1.473852873E+00
 -6.258515928E-11 1.498379350E+00
 -5.928196128E-11 1.523313046E+00
 -5.609444506E-11 1.548663616E+00
 -5.300353906E-11 1.574435115E+00
 -5.002379067E-11 1.600637674E+00
 -4.714006616E-11 1.627274990E+00
 -4.436306184E-11 1.654358149E+00
 -4.168080117E-11 1.681890965E+00
 -3.910099675E-11 1.709883928E+00
 -3.661407635E-11 1.738342047E+00
 -3.422532049E-11 1.767276049E+00
 -3.192710679E-11 1.796690464E+00
 -2.972282143E-11 1.826596737E+00
 -2.760618643E-11 1.856999874E+00
 -2.557926267E-11 1.887911558E+00
 -2.363670371E-11 1.919336319E+00
 -2.177964059E-11 1.951287031E+00
 -2.000320916E-11 1.983768225E+00
 -1.830810156E-11 2.016792774E+00
 -1.668953170E-11 2.050365925E+00
 -1.514809458E-11 2.084500551E+00
 -1.367881069E-11 2.119202375E+00
 -1.228245717E-11 2.154484510E+00
 -1.095363904E-11 2.190352678E+00
 -9.693520292E-12 2.226821184E+00
 -8.496106596E-12 2.263895512E+00
 -7.363184715E-12 2.301589727E+00
 -6.287996599E-12 2.339910507E+00
 -5.273064537E-12 2.378872156E+00
 -4.310821665E-12 2.418481350E+00
 -3.404590629E-12 2.458753347E+00
 -2.545969728E-12 2.499694347E+00
 -1.739126746E-12 2.541320086E+00
 -9.748205932E-13 2.583637953E+00
 -2.580684418E-13 2.626663685E+00
 4.211648120E-13 2.670404434E+00
 1.057081831E-12 2.714876890E+00
 1.660410416E-12 2.760088682E+00
 2.224652103E-12 2.806056976E+00
 2.761040311E-12 2.852789164E+00
 3.262492923E-12 2.900303364E+00
 3.741202226E-12 2.948607445E+00
 4.189699802E-12 2.997719765E+00
 4.618458394E-12 3.047648430E+00
 5.019628376E-12 3.098412752E+00
 5.411210108E-12 3.150020838E+00
 5.785820607E-12 3.202492714E+00
 6.133825652E-12 3.255836725E+00
 6.446337388E-12 3.310073614E+00
 6.791638432E-12 3.365211964E+00
 7.165796602E-12 3.421273708E+00
 6.937909015E-12 3.478267193E+00
 6.057522105E-12 3.536214828E+00
 0.000000000E+00 3.595125675E+00
ZONE T="CFL3D, Slc: X=0.688"
 0.000000000E+00 0.000000000E+00
 0.000000000E+00 2.890825272E-06
 0.000000000E+00 5.811452866E-06
 0.000000000E+00 8.732080460E-06
 0.000000000E+00 1.165270805E-05
 0.000000000E+00 1.457333565E-05
 0.000000000E+00 1.752376556E-05
 9.798291518E-12 2.044439316E-05
 2.596079948E-11 2.339482307E-05
 2.014463180E-10 2.634525299E-05
 4.773581530E-10 2.929568291E-05
 1.670391714E-09 3.224611282E-05
 3.412264693E-09 3.522634506E-05
 8.247237560E-09 3.820657730E-05
 1.462546706E-08 4.118680954E-05
 2.874366167E-08 4.419684410E-05
 4.628896022E-08 4.720687866E-05
 7.992919393E-08 5.024671555E-05
 1.193686785E-07 5.328655243E-05
 1.883169745E-07 5.635619164E-05
 2.652792546E-07 5.942583084E-05
 3.903030006E-07 6.249547005E-05
 5.274798127E-07 6.562471390E-05
 7.405762972E-07 6.875395775E-05
 9.634940170E-07 7.188320160E-05
 1.298156121E-06 7.504224777E-05
 1.643754558E-06 7.823109627E-05
 2.141811592E-06 8.144974709E-05
 2.653469437E-06 8.466839790E-05
 3.340738203E-06 8.791685104E-05
 4.065931080E-06 9.119510651E-05
 4.975115644E-06 9.450316429E-05
 5.946109923E-06 9.784102440E-05
 7.099052254E-06 1.012086868E-04
 8.320244888E-06 1.045763493E-04
 9.687122656E-06 1.079738140E-04
 1.114845054E-05 1.114308834E-04
 1.269576751E-05 1.148879528E-04
 1.431870351E-05 1.184046268E-04
 1.598263952E-05 1.219511032E-04
 1.763185901E-05 1.254975796E-04
 1.926555888E-05 1.291036606E-04
 2.079230944E-05 1.327395439E-04
 2.224203672E-05 1.364350319E-04
 2.343723463E-05 1.401603222E-04
 2.450150168E-05 1.438856125E-04
 2.516721906E-05 1.477003098E-04
 2.571127152E-05 1.515150070E-04
 2.566090734E-05 1.553893089E-04
 2.553815648E-05 1.593232155E-04
 2.466517981E-05 1.632869244E-04
 2.371844494E-05 1.672804356E-04
 2.204248267E-05 1.713335514E-04
 2.022165609E-05 1.754462719E-04
 1.775085002E-05 1.795887947E-04
 1.507812249E-05 1.837909222E-04
 1.185876044E-05 1.880228519E-04
 8.394126780E-06 1.923143864E-04
 4.455068847E-06 1.966655254E-04
 2.440880280E-07 2.010762691E-04
 -4.343068667E-06 2.055466175E-04
 -9.187646356E-06 2.100467682E-04
 -1.436319326E-05 2.146363258E-04
 -1.978776891E-05 2.192556858E-04
 -2.544181552E-05 2.239346504E-04
 -3.142413698E-05 2.287030220E-04
 -3.759516767E-05 2.335309982E-04
 -4.401968545E-05 2.383887768E-04
 -5.062515629E-05 2.433359623E-04
 -5.748121112E-05 2.483427525E-04
 -6.447899068E-05 2.534389496E-04
 -7.171546167E-05 2.585649490E-04
 -7.912336150E-05 2.638101578E-04
 -8.673364209E-05 2.690851688E-04
 -9.447069169E-05 2.744495869E-04
 -1.024824742E-04 2.799034119E-04
 -1.105758565E-04 2.854168415E-04
 -1.189093164E-04 2.910196781E-04
 -1.273308590E-04 2.966821194E-04
 -1.359806483E-04 3.024339676E-04
 -1.447587565E-04 3.082752228E-04
 -1.537442877E-04 3.142058849E-04
 -1.628181053E-04 3.201961517E-04
 -1.721400622E-04 3.263056278E-04
 -1.815561409E-04 3.324747086E-04
 -1.912173175E-04 3.387629986E-04
 -2.009627206E-04 3.451108932E-04
 -2.109435736E-04 3.515779972E-04
 -2.210616076E-04 3.581345081E-04
 -2.314075682E-04 3.648102283E-04
 -2.418247168E-04 3.715455532E-04
 -2.524471201E-04 3.784000874E-04
 -2.633019176E-04 3.853738308E-04
 -2.743030782E-04 3.924369812E-04
 -2.855175408E-04 3.996193409E-04
 -2.968581102E-04 4.068911076E-04
 -3.084149212E-04 4.142820835E-04
 -3.201336367E-04 4.217922688E-04
 -3.321143449E-04 4.294216633E-04
 -3.441992158E-04 4.371404648E-04
 -3.565858351E-04 4.450082779E-04
 -3.691114543E-04 4.529953003E-04
 -3.818658297E-04 4.611015320E-04
 -3.947328660E-04 4.692971706E-04
 -4.079165228E-04 4.776418209E-04
 -4.212862405E-04 4.861354828E-04
 -4.348935909E-04 4.947483540E-04
 -4.486866819E-04 5.035102367E-04
 -4.627196176E-04 5.123913288E-04
 -4.769493244E-04 5.214214325E-04
 -4.914763849E-04 5.306005478E-04
 -5.062097334E-04 5.399286747E-04
 -5.212468677E-04 5.494058132E-04
 -5.364061799E-04 5.590021610E-04
 -5.518965772E-04 5.687773228E-04
 -5.675858120E-04 5.787014961E-04
 -5.835709744E-04 5.887746811E-04
 -5.998130073E-04 5.990266800E-04
 -6.163559156E-04 6.094276905E-04
 -6.331155309E-04 6.200075150E-04
 -6.501561729E-04 6.307363510E-04
 -6.675127661E-04 6.416738033E-04
 -6.851390935E-04 6.527602673E-04
 -7.030438865E-04 6.640255451E-04
 -7.212503115E-04 6.754696369E-04
 -7.397520822E-04 6.870925426E-04
 -7.585856365E-04 6.989240646E-04
 -7.777041756E-04 7.109344006E-04
 -7.970916922E-04 7.231235504E-04
 -8.169139619E-04 7.355511189E-04
 -8.369408315E-04 7.481276989E-04
 -8.573996020E-04 7.609426975E-04
 -8.781432989E-04 7.739663124E-04
 -8.993061492E-04 7.871985435E-04
 -9.207310504E-04 8.006393909E-04
 -9.425479220E-04 8.142888546E-04
 -9.646842373E-04 8.281767368E-04
 -9.872762021E-04 8.422732353E-04
 -1.010165084E-03 8.566081524E-04
 -1.033496461E-03 8.711814880E-04
 -1.057142275E-03 8.859932423E-04
 -1.081269816E-03 9.010434151E-04
 -1.105707255E-03 9.163320065E-04
 -1.130681834E-03 9.318888187E-04
 -1.155950129E-03 9.476840496E-04
 -1.181726926E-03 9.637475014E-04
 -1.207857626E-03 9.800791740E-04
 -1.234513707E-03 9.966790676E-04
 -1.261483063E-03 1.013517380E-03
 -1.289096428E-03 1.030683517E-03
 -1.316991285E-03 1.048088074E-03
 -1.345447847E-03 1.065790653E-03
 -1.374309883E-03 1.083791256E-03
 -1.403761795E-03 1.102089882E-03
 -1.433606609E-03 1.120686531E-03
 -1.464038040E-03 1.139581203E-03
 -1.494914060E-03 1.158803701E-03
 -1.526383101E-03 1.178324223E-03
 -1.558286720E-03 1.198172569E-03
 -1.590833301E-03 1.218348742E-03
 -1.623799093E-03 1.238852739E-03
 -1.657447312E-03 1.259714365E-03
 -1.691543031E-03 1.280903816E-03
 -1.726336079E-03 1.302450895E-03
 -1.761548687E-03 1.324325800E-03
 -1.797500066E-03 1.346588135E-03
 -1.833926653E-03 1.369208097E-03
 -1.871099696E-03 1.392215490E-03
 -1.908804406E-03 1.415610313E-03
 -1.947215060E-03 1.439362764E-03
 -1.986181131E-03 1.463532448E-03
 -2.025894122E-03 1.488089561E-03
 -2.066190122E-03 1.513063908E-03
 -2.107247710E-03 1.538425684E-03
 -2.148894593E-03 1.564234495E-03
 -2.191337291E-03 1.590460539E-03
 -2.234360203E-03 1.617103815E-03
 -2.278220374E-03 1.644194126E-03
 -2.322750399E-03 1.671761274E-03
 -2.368102316E-03 1.699775457E-03
 -2.414087765E-03 1.728236675E-03
 -2.460928168E-03 1.757174730E-03
 -2.508459846E-03 1.786589622E-03
 -2.556882333E-03 1.816511154E-03
 -2.606055234E-03 1.846939325E-03
 -2.656057011E-03 1.877844334E-03
 -2.706804546E-03 1.909255981E-03
 -2.758461749E-03 1.941204071E-03
 -2.810954815E-03 1.973688602E-03
 -2.864346141E-03 2.006709576E-03
 -2.918524668E-03 2.040266991E-03
 -2.973632887E-03 2.074390650E-03
 -3.029585350E-03 2.109080553E-03
 -3.086453304E-03 2.144336700E-03
 -3.144241171E-03 2.180188894E-03
 -3.202977357E-03 2.216637135E-03
 -3.262599930E-03 2.253681421E-03
 -3.323201789E-03 2.291351557E-03
 -3.384733573E-03 2.329647541E-03
 -3.447225550E-03 2.368569374E-03
 -3.510655835E-03 2.408146858E-03
 -3.575077048E-03 2.448379993E-03
 -3.640502458E-03 2.489298582E-03
 -3.706894815E-03 2.530872822E-03
 -3.774268087E-03 2.573162317E-03
 -3.842635313E-03 2.616137266E-03
 -3.911959473E-03 2.659827471E-03
 -3.982347902E-03 2.704262733E-03
 -4.053648096E-03 2.749413252E-03
 -4.126031417E-03 2.795338631E-03
 -4.199298564E-03 2.842009068E-03
 -4.273619503E-03 2.889454365E-03
 -4.348850809E-03 2.937704325E-03
 -4.425145220E-03 2.986758947E-03
 -4.502241965E-03 3.036618233E-03
 -4.580412526E-03 3.087311983E-03
 -4.659379367E-03 3.138870001E-03
 -4.739388824E-03 3.191262484E-03
 -4.820245318E-03 3.244519234E-03
 -4.903071560E-03 3.298670053E-03
 -4.995856434E-03 3.353714943E-03
 -5.088050850E-03 3.409683704E-03
 -5.169483833E-03 3.466606140E-03
 -5.252086092E-03 3.524452448E-03
 -5.328782368E-03 3.583282232E-03
 -5.406566896E-03 3.643095493E-03
 -5.486651324E-03 3.703892231E-03
 -5.567741580E-03 3.765672445E-03
 -5.650397856E-03 3.828525543E-03
 -5.734006409E-03 3.892421722E-03
 -5.817834288E-03 3.957360983E-03
 -5.902509205E-03 4.023402929E-03
 -5.985966418E-03 4.090547562E-03
 -6.070043426E-03 4.158794880E-03
 -6.151406560E-03 4.228174686E-03
 -6.233203225E-03 4.298716784E-03
 -6.310913246E-03 4.370450974E-03
 -6.388799287E-03 4.443377256E-03
 -6.461301818E-03 4.517525434E-03