TITLE     = "u'v'/Uref^2 profiles CFL3D M=0.875, SST model"
VARIABLES = "uv","z-z0"
ZONE T="CFL3D, Slc: X=-0.25"
 0.000000000E+00 0.000000000E+00
 0.000000000E+00 3.218650818E-06
 0.000000000E+00 6.467103958E-06
 0.000000000E+00 9.685754776E-06
 0.000000000E+00 1.293420792E-05
 -8.106883914E-11 1.615285873E-05
 -9.247834720E-10 1.940131187E-05
 -3.056603637E-09 2.264976501E-05
 -1.801617522E-08 2.589821815E-05
 -4.193952918E-08 2.917647362E-05
 -1.396327036E-07 3.245472908E-05
 -2.711540787E-07 3.573298454E-05
 -6.443117400E-07 3.901124001E-05
 -1.113901135E-06 4.231929779E-05
 -2.168217407E-06 4.562735558E-05
 -3.451969633E-06 4.896521568E-05
 -5.840329777E-06 5.230307579E-05
 -8.636428902E-06 5.564093590E-05
 -1.324440564E-05 5.900859833E-05
 -1.856805102E-05 6.240606308E-05
 -2.639036393E-05 6.580352783E-05
 -3.523702253E-05 6.923079491E-05
 -4.710959911E-05 7.268786430E-05
 -6.016006228E-05 7.614493370E-05
 -7.626973093E-05 7.963180542E-05
 -9.352943744E-05 8.311867714E-05
 -1.133870537E-04 8.663535118E-05
 -1.344958582E-04 9.021162987E-05
 -1.573101763E-04 9.378790855E-05
 -1.805698266E-04 9.736418724E-05
 -2.051322372E-04 1.010000706E-04
 -2.298498875E-04 1.046657562E-04
 -2.548824996E-04 1.083314419E-04
 -2.795833861E-04 1.120567322E-04
 -3.040377633E-04 1.157820225E-04
 -3.278463555E-04 1.195669174E-04
 -3.512880066E-04 1.233518124E-04
 -3.736793587E-04 1.271963120E-04
 -3.958168672E-04 1.310706139E-04
 -4.165080027E-04 1.349747181E-04
 -4.369907838E-04 1.389086246E-04
 -4.560158995E-04 1.429021358E-04
 -4.748975043E-04 1.469254494E-04
 -4.921474610E-04 1.509785652E-04
 -5.094896769E-04 1.550912857E-04
 -5.252528936E-04 1.592338085E-04
 -5.410134327E-04 1.634061337E-04
 -5.551482318E-04 1.676380634E-04
 -5.693197018E-04 1.719295979E-04
 -5.823203246E-04 1.762509346E-04
 -5.951876519E-04 1.806020737E-04
 -6.072627730E-04 1.850128174E-04
 -6.191914435E-04 1.894831657E-04
 -6.304541021E-04 1.940131187E-04
 -6.414196105E-04 1.985728741E-04
 -6.519702729E-04 2.032220364E-04
 -6.620398490E-04 2.079010010E-04
 -6.714311312E-04 2.126097679E-04
 -6.805678131E-04 2.174079418E-04
 -6.893116515E-04 2.222657204E-04
 -6.977522280E-04 2.271831036E-04
 -7.059330819E-04 2.321600914E-04
 -7.137365756E-04 2.371966839E-04
 -7.213294739E-04 2.422928810E-04
 -7.285576430E-04 2.474486828E-04
 -7.356883143E-04 2.526938915E-04
 -7.423967472E-04 2.579689026E-04
 -7.490921416E-04 2.633631229E-04
 -7.553686155E-04 2.687871456E-04
 -7.616384537E-04 2.743005753E-04
 -7.675294182E-04 2.798736095E-04
 -7.734812680E-04 2.855658531E-04
 -7.790126256E-04 2.912878990E-04
 -7.845999789E-04 2.970993519E-04
 -7.898400654E-04 3.030002117E-04
 -7.951280568E-04 3.089904785E-04
 -8.001137176E-04 3.150701523E-04
 -8.050994365E-04 3.212094307E-04
 -8.098317776E-04 3.274381161E-04
 -8.145703468E-04 3.337562084E-04
 -8.190937224E-04 3.401637077E-04
 -8.236220456E-04 3.466904163E-04
 -8.279365138E-04 3.532767296E-04
 -8.322289796E-04 3.599524498E-04
 -8.363915840E-04 3.667473793E-04
 -8.405082626E-04 3.736317158E-04
 -8.445054991E-04 3.806352615E-04
 -8.484358550E-04 3.876984119E-04
 -8.522908320E-04 3.949105740E-04
 -8.560839924E-04 4.022121429E-04
 -8.597864653E-04 4.096031189E-04
 -8.634374244E-04 4.171133041E-04
 -8.670295356E-04 4.247426987E-04
 -8.705605287E-04 4.324913025E-04
 -8.740448393E-04 4.403591156E-04
 -8.774594171E-04 4.483461380E-04
 -8.808263228E-04 4.564225674E-04
 -8.841349627E-04 4.646480083E-04
 -8.874185150E-04 4.729926586E-04
 -8.906294825E-04 4.814565182E-04
 -8.938389947E-04 4.900693893E-04
 -8.969650953E-04 4.988014698E-04
 -9.001017315E-04 5.076825619E-04
 -9.031413938E-04 5.166828632E-04
 -9.062016034E-04 5.258321762E-04
 -9.091660031E-04 5.351006985E-04
 -9.121709154E-04 5.445480347E-04
 -9.150708793E-04 5.541145802E-04
 -9.180176421E-04 5.638599396E-04
 -9.208616684E-04 5.737245083E-04
 -9.237520280E-04 5.837678909E-04
 -9.265444824E-04 5.939602852E-04
 -9.293732583E-04 6.043016911E-04
 -9.321261896E-04 6.148219109E-04
 -9.349122993E-04 6.254911423E-04
 -9.376099915E-04 6.363093853E-04
 -9.403555887E-04 6.473362446E-04
 -9.430208011E-04 6.585121155E-04
 -9.457314154E-04 6.698966026E-04
 -9.483600152E-04 6.814301014E-04
 -9.510252276E-04 6.931424141E-04
 -9.536289726E-04 7.050633430E-04
 -9.562640917E-04 7.171630859E-04
 -9.588390240E-04 7.294714451E-04
 -9.614432929E-04 7.419586182E-04
 -9.639950586E-04 7.546544075E-04
 -9.665756370E-04 7.675588131E-04
 -9.691035375E-04 7.806718349E-04
 -9.716532659E-04 7.939636707E-04
 -9.741623071E-04 8.074939251E-04
 -9.766941657E-04 8.212327957E-04
 -9.791807970E-04 8.351802826E-04
 -9.816918755E-04 8.493661880E-04
 -9.841632564E-04 8.637905121E-04
 -9.866531473E-04 8.784234524E-04
 -9.891084628E-04 8.932948112E-04
 -9.915876435E-04 9.084343910E-04
 -9.940281743E-04 9.237825871E-04
 -9.964902420E-04 9.393990040E-04
 -9.989197133E-04 9.552538395E-04
 -1.001368160E-03 9.713768959E-04
 -1.003789948E-03 9.877681732E-04
 -1.006226521E-03 1.004427671E-03
 -1.008636900E-03 1.021355391E-03
 -1.011061249E-03 1.038551331E-03
 -1.013461500E-03 1.056015491E-03
 -1.015875954E-03 1.073777676E-03
 -1.018266776E-03 1.091808081E-03
 -1.020673546E-03 1.110166311E-03
 -1.023057499E-03 1.128792763E-03
 -1.025451464E-03 1.147717237E-03
 -1.027830876E-03 1.166969538E-03
 -1.030217041E-03 1.186519861E-03
 -1.032588887E-03 1.206398010E-03
 -1.034968416E-03 1.226603985E-03
 -1.037336187E-03 1.247137785E-03
 -1.039705006E-03 1.267999411E-03
 -1.042068936E-03 1.289218664E-03
 -1.044431818E-03 1.310795546E-03
 -1.046790159E-03 1.332700253E-03
 -1.049142331E-03 1.354962587E-03
 -1.051496831E-03 1.377582550E-03
 -1.053840388E-03 1.400589943E-03
 -1.056189300E-03 1.423954964E-03
 -1.058522495E-03 1.447707415E-03
 -1.060870127E-03 1.471877098E-03
 -1.063192729E-03 1.496404409E-03
 -1.065535587E-03 1.521378756E-03
 -1.067851321E-03 1.546740532E-03
 -1.070184866E-03 1.572489738E-03
 -1.072490704E-03 1.598685980E-03
 -1.074819942E-03 1.625299454E-03
 -1.077115419E-03 1.652359962E-03
 -1.079439651E-03 1.679867506E-03
 -1.081723021E-03 1.707822084E-03
 -1.084037824E-03 1.736223698E-03
 -1.086310716E-03 1.765102148E-03
 -1.088619349E-03 1.794457436E-03
 -1.090881531E-03 1.824319363E-03
 -1.093178056E-03 1.854628325E-03
 -1.095428248E-03 1.885473728E-03
 -1.097714761E-03 1.916795969E-03
 -1.099948655E-03 1.948624849E-03
 -1.102222945E-03 1.980990171E-03
 -1.104446012E-03 2.013921738E-03
 -1.106707146E-03 2.047359943E-03
 -1.108913915E-03 2.081364393E-03
 -1.111160498E-03 2.115905285E-03
 -1.113351667E-03 2.151042223E-03
 -1.115584164E-03 2.186745405E-03
 -1.117754611E-03 2.223014832E-03
 -1.119969762E-03 2.259910107E-03
 -1.122122048E-03 2.297401428E-03
 -1.124318223E-03 2.335518599E-03
 -1.126451301E-03 2.374291420E-03
 -1.128626289E-03 2.413660288E-03
 -1.130735269E-03 2.453684807E-03
 -1.132888603E-03 2.494364977E-03
 -1.134972670E-03 2.535700798E-03
 -1.137103420E-03 2.577751875E-03
 -1.139162923E-03 2.620488405E-03
 -1.141268294E-03 2.663940191E-03
 -1.143299742E-03 2.708107233E-03
 -1.145375078E-03 2.752959728E-03
 -1.147376024E-03 2.798587084E-03
 -1.149422606E-03 2.844959497E-03
 -1.151392236E-03 2.892106771E-03
 -1.153407618E-03 2.940028906E-03
 -1.155342790E-03 2.988755703E-03
 -1.157323015E-03 3.038257360E-03
 -1.159221865E-03 3.088593483E-03
 -1.161165419E-03 3.139734268E-03
 -1.163024688E-03 3.191739321E-03
 -1.164930873E-03 3.244638443E-03
 -1.166748698E-03 3.298372030E-03
 -1.168610994E-03 3.352969885E-03
 -1.170384814E-03 3.408491611E-03
 -1.172203105E-03 3.464937210E-03
 -1.173931174E-03 3.522336483E-03
 -1.175701269E-03 3.580659628E-03
 -1.177380094E-03 3.639936447E-03
 -1.179099549E-03 3.700196743E-03
 -1.180726918E-03 3.761470318E-03
 -1.182392822E-03 3.823757172E-03
 -1.183965011E-03 3.887057304E-03
 -1.185573521E-03 3.951400518E-03
 -1.187087037E-03 4.016786814E-03
 -1.188635477E-03 4.083275795E-03
 -1.190089039E-03 4.150897264E-03
 -1.191573800E-03 4.219591618E-03
 -1.192962402E-03 4.289448261E-03
 -1.194380224E-03 4.360437393E-03
 -1.195699791E-03 4.432588816E-03
 -1.197047532E-03 4.505962133E-03
 -1.198296202E-03 4.580557346E-03
 -1.199569204E-03 4.656344652E-03
 -1.200742554E-03 4.733443260E-03
 -1.201937674E-03 4.811763763E-03
 -1.203031279E-03 4.891395569E-03
 -1.204144675E-03 4.972338676E-03
 -1.205154695E-03 5.054622889E-03
 -1.206182293E-03 5.138278008E-03
 -1.207105001E-03 5.223304033E-03
 -1.208042144E-03 5.309730768E-03
 -1.208873116E-03 5.397617817E-03
 -1.209715847E-03 5.486935377E-03
 -1.210450544E-03 5.577743053E-03
 -1.211193972E-03 5.670011044E-03
 -1.211827970E-03 5.763858557E-03
 -1.212468022E-03 5.859255791E-03
 -1.212996314E-03 5.956202745E-03
 -1.213527750E-03 6.054759026E-03
 -1.213945798E-03 6.154954433E-03
 -1.214363729E-03 6.256788969E-03
 -1.214666176E-03 6.360322237E-03
 -1.214965712E-03 6.465584040E-03
 -1.215147437E-03 6.572574377E-03
 -1.215322874E-03 6.681323051E-03
 -1.215378521E-03 6.791889668E-03
 -1.215424505E-03 6.904274225E-03
 -1.215348486E-03 7.018506527E-03
 -1.215259312E-03 7.134646177E-03
 -1.215045573E-03 7.252722979E-03
 -1.214815304E-03 7.372707129E-03
 -1.214457792E-03 7.494747639E-03
 -1.214080374E-03 7.618725300E-03
 -1.213573036E-03 7.744818926E-03
 -1.213041949E-03 7.872968912E-03
 -1.212378265E-03 8.003234863E-03
 -1.211686642E-03 8.135706186E-03
 -1.210859860E-03 8.270323277E-03
 -1.210001297E-03 8.407175541E-03
 -1.209004084E-03 8.546292782E-03
 -1.207971363E-03 8.687704802E-03
 -1.206796383E-03 8.831501007E-03
 -1.205582055E-03 8.977621794E-03
 -1.204222091E-03 9.126186371E-03
 -1.202818239E-03 9.277224541E-03
 -1.201265026E-03 9.430736303E-03
 -1.199663617E-03 9.586811066E-03
 -1.197908889E-03 9.745448828E-03
 -1.196101657E-03 9.906738997E-03
 -1.194136683E-03 1.007068157E-02
 -1.192152267E-03 1.023733616E-02
 -1.190069481E-03 1.040676236E-02
 -1.187910209E-03 1.057898998E-02
 -1.185554545E-03 1.075407863E-02
 -1.183089335E-03 1.093205810E-02
 -1.180375228E-03 1.111298800E-02
 -1.177602448E-03 1.129689813E-02
 -1.174674020E-03 1.148387790E-02
 -1.171680749E-03 1.167392731E-02
 -1.168524497E-03 1.186716557E-02
 -1.165296417E-03 1.206356287E-02
 -1.161897671E-03 1.226323843E-02
 -1.158419298E-03 1.246619225E-02
 -1.154761412E-03 1.267254353E-02
 -1.151015516E-03 1.288229227E-02
 -1.147081144E-03 1.309552789E-02
 -1.143049682E-03 1.331228018E-02
 -1.138819382E-03 1.353263855E-02
 -1.134482911E-03 1.375663280E-02
 -1.129937475E-03 1.398435235E-02
 -1.125275507E-03 1.421582699E-02
 -1.120393048E-03 1.445114613E-02
 -1.115383347E-03 1.469036937E-02
 -1.110141631E-03 1.493355632E-02
 -1.104761963E-03 1.518073678E-02
 -1.099135960E-03 1.543205976E-02
 -1.093359897E-03 1.568752527E-02
 -1.087325392E-03 1.594722271E-02
 -1.081127208E-03 1.621124148E-02
 -1.074656378E-03 1.647961140E-02
 -1.068009180E-03 1.675242186E-02
 -1.061072573E-03 1.702979207E-02
 -1.053945511E-03 1.731172204E-02
 -1.046513091E-03 1.759833097E-02
 -1.038873219E-03 1.788970828E-02
 -1.030910411E-03 1.818591356E-02
 -1.022724784E-03 1.848697662E-02
 -1.014195615E-03 1.879307628E-02
 -1.005423022E-03 1.910424232E-02
 -9.962860495E-04 1.942056417E-02
 -9.868842317E-04 1.974213123E-02
 -9.770931210E-04 2.006903291E-02
 -9.670137079E-04 2.040132880E-02
 -9.565164801E-04 2.073913813E-02
 -9.457021952E-04 2.108255029E-02
 -9.344363934E-04 2.143165469E-02
 -9.228212293E-04 2.178657055E-02
 -9.107173537E-04 2.214732766E-02
 -8.982275031E-04 2.251410484E-02
 -8.852037718E-04 2.288693190E-02
 -8.717547753E-04 2.326592803E-02
 -8.577178814E-04 2.365124226E-02
 -8.432096220E-04 2.404293418E-02
 -8.280565962E-04 2.444112301E-02
 -8.123842999E-04 2.484586835E-02
 -7.960028597E-04 2.525737882E-02
 -7.790519740E-04 2.567568421E-02
 -7.613322232E-04 2.610093355E-02
 -7.429992547E-04 2.653321624E-02
 -7.238454418E-04 2.697271109E-02
 -7.040577475E-04 2.741944790E-02
 -6.834324449E-04 2.787363529E-02
 -6.621960201E-04 2.833530307E-02
 -6.401730934E-04 2.880465984E-02
 -6.176412571E-04 2.928176522E-02
 -5.944922450E-04 2.976682782E-02
 -5.711082486E-04 3.025987744E-02
 -5.475318176E-04 3.076115251E-02
 -5.240816972E-04 3.127071261E-02
 -5.010048626E-04 3.178873658E-02
 -4.782928154E-04 3.231534362E-02
 -4.563207913E-04 3.285068274E-02
 -4.334648838E-04 3.339490294E-02
 -4.093147581E-04 3.394815326E-02
 -3.838243138E-04 3.451055288E-02
 -3.566926462E-04 3.508234024E-02
 -3.296713694E-04 3.566354513E-02
 -3.032085369E-04 3.625443578E-02
 -2.762094082E-04 3.685510159E-02
 -2.487420279E-04 3.746575117E-02
 -2.208219666E-04 3.808647394E-02
 -1.925407269E-04 3.871756792E-02
 -1.641171984E-04 3.935906291E-02
 -1.358007576E-04 4.001125693E-02
 -1.083179450E-04 4.067423940E-02
 -8.239534509E-05 4.134821892E-02
 -5.912472261E-05 4.203337431E-02
 -4.007468306E-05 4.272991419E-02
 -2.459776988E-05 4.343798757E-02
 -1.474417968E-05 4.415783286E-02
 -7.376291705E-06 4.488956928E-02
 -4.075579000E-06 4.563349485E-02
 -1.706308467E-06 4.638975859E-02
 -9.964390983E-07 4.715856910E-02
 -4.584914564E-07 4.794010520E-02
 -2.950431508E-07 4.873463511E-02
 -1.592395193E-07 4.954230785E-02
 -9.803125778E-08 5.036345124E-02
 -4.866033976E-08 5.119815469E-02
 -2.889983186E-08 5.204674602E-02
 -1.301614194E-08 5.290940404E-02
 -7.806232993E-09 5.378639698E-02
 -3.564189610E-09 5.467790365E-02
 -2.321172810E-09 5.558425188E-02
 -1.296264762E-09 5.650559068E-02
 -1.019512030E-09 5.744224787E-02
 -7.887472342E-10 5.839440227E-02
 -7.324209572E-10 5.936244130E-02
 -6.852218237E-10 6.034645438E-02
 -6.764840355E-10 6.134688854E-02
 -6.694719779E-10 6.236386299E-02
 -6.705060951E-10 6.339776516E-02
 -6.718676726E-10 6.444877386E-02
 -6.748201442E-10 6.551724672E-02
 -6.778488326E-10 6.660345197E-02
 -6.811639586E-10 6.770771742E-02
 -6.845086720E-10 6.883025169E-02
 -6.878882464E-10 6.997147202E-02
 -6.912848627E-10 7.113158703E-02
 -6.946703768E-10 7.231101394E-02
 -6.980651057E-10 7.350996137E-02
 -7.014414605E-10 7.472887635E-02
 -7.048190365E-10 7.596796751E-02
 -7.081777387E-10 7.722765207E-02
 -7.115292799E-10 7.850822806E-02
 -7.148633907E-10 7.981011271E-02
 -7.181809036E-10 8.113354445E-02
 -7.214829845E-10 8.247900009E-02
 -7.247584755E-10 8.384674788E-02
 -7.280205327E-10 8.523726463E-02
 -7.312452310E-10 8.665078878E-02
 -7.344589936E-10 8.808785677E-02
 -7.376240174E-10 8.954870701E-02
 -7.407810476E-10 9.103390574E-02
 -7.438771821E-10 9.254369140E-02
 -7.469684316E-10 9.407857060E-02
 -7.499860177E-10 9.563890100E-02
 -7.530021606E-10 9.722524881E-02
 -7.559311510E-10 9.883782268E-02
 -7.588623063E-10 1.004772484E-01
 -7.616924869E-10 1.021438241E-01
 -7.645288291E-10 1.038381457E-01
 -7.672496527E-10 1.055605412E-01
 -7.699806903E-10 1.073116064E-01
 -7.725813322E-10 1.090916991E-01
 -7.751966291E-10 1.109014153E-01
 -7.776660427E-10 1.127411127E-01
 -7.801548296E-10 1.146114469E-01
 -7.824818571E-10 1.165127158E-01
 -7.848330319E-10 1.184456944E-01
 -7.870064600E-10 1.204106808E-01
 -7.892089759E-10 1.224084198E-01
 -7.912174249E-10 1.244392097E-01
 -7.932600687E-10 1.265038252E-01
 -7.950921033E-10 1.286026835E-01
 -7.969636062E-10 1.307364702E-01
 -7.986080131E-10 1.329056025E-01
 -8.002972729E-10 1.351108551E-01
 -8.017427278E-10 1.373526454E-01
 -8.032384202E-10 1.396318078E-01
 -8.044737099E-10 1.419487000E-01
 -8.057649548E-10 1.443042159E-01
 -8.067793100E-10 1.466987729E-01
 -8.078551161E-10 1.491332054E-01
 -8.086378234E-10 1.516079307E-01
 -8.094876991E-10 1.541239023E-01
 -8.100284887E-10 1.566815376E-01
 -8.106421645E-10 1.592818499E-01
 -8.109310445E-10 1.619251370E-01
 -8.112985284E-10 1.646125913E-01
 -8.113261174E-10 1.673445106E-01
 -8.114379169E-10 1.701219678E-01
 -8.111952221E-10 1.729454398E-01
 -8.110425664E-10 1.758159995E-01
 -8.105212057E-10 1.787340641E-01
 -8.100955462E-10 1.817008257E-01
 -8.092877479E-10 1.847166419E-01
 -8.085814240E-10 1.877827644E-01
 -8.074800828E-10 1.908997297E-01
 -8.064859336E-10 1.940686107E-01
 -8.050847211E-10 1.972900629E-01
 -8.037964183E-10 2.005650997E-01
 -8.020898945E-10 2.038944960E-01
 -8.005018870E-10 2.072793841E-01
 -7.984853889E-10 2.107203007E-01
 -7.965931248E-10 2.142186761E-01
 -7.942628777E-10 2.177749276E-01
 -7.920624712E-10 2.213904858E-01
 -7.894155885E-10 2.250660062E-01
 -7.869041529E-10 2.288027406E-01
 -7.839388583E-10 2.326014638E-01
 -7.811146729E-10 2.364635468E-01
 -7.778302447E-10 2.403895259E-01
 -7.746922548E-10 2.443810701E-01
 -7.710888039E-10 2.484387159E-01
 -7.676374536E-10 2.525640130E-01
 -7.637163124E-10 2.567577362E-01
 -7.599527674E-10 2.610213161E-01
 -7.557163229E-10 2.653556466E-01
 -7.516430256E-10 2.697621584E-01
 -7.470948860E-10 2.742418051E-01
 -7.427152227E-10 2.787960768E-01
 -7.378601619E-10 2.834258676E-01
 -7.331789065E-10 2.881329060E-01
 -7.280225867E-10 2.929179072E-01
 -7.230452348E-10 2.977827787E-01
 -7.175945949E-10 3.027282357E-01
 -7.123281964E-10 3.077562451E-01
 -7.065912855E-10 3.128675222E-01
 -7.010439451E-10 3.180640936E-01
 -6.950297560E-10 3.233468533E-01
 -6.892102999E-10 3.287177086E-01
 -6.829292687E-10 3.341775537E-01
 -6.768478555E-10 3.397285342E-01
 -6.703110289E-10 3.453715444E-01
 -6.639788719E-10 3.511086106E-01
 -6.571986289E-10 3.569408655E-01
 -6.506277739E-10 3.628703952E-01
 -6.436172706E-10 3.688982725E-01
 -6.368208183E-10 3.750267029E-01
 -6.295941546E-10 3.812567592E-01
 -6.225861493E-10 3.875907063E-01
 -6.151583132E-10 3.940297365E-01
 -6.079534098E-10 4.005761743E-01
 -6.003401665E-10 4.072311521E-01
 -5.929539082E-10 4.139972329E-01
 -5.851716889E-10 4.208754301E-01
 -5.776203404E-10 4.278684855E-01
 -5.696861316E-10 4.349774122E-01
 -5.619864574E-10 4.422050714E-01
 -5.539178560E-10 4.495525360E-01
 -5.460873420E-10 4.570226073E-01
 -5.379023338E-10 4.646165967E-01
 -5.299585215E-10 4.723373055E-01
 -5.216755361E-10 4.801860452E-01
 -5.136365777E-10 4.881657958E-01
 -5.052741558E-10 4.962779284E-01
 -4.971583700E-10 5.045254230E-01
 -4.887353855E-10 5.129096508E-01
 -4.805610354E-10 5.214339495E-01
 -4.720961955E-10 5.300995708E-01
 -4.638819051E-10 5.389098525E-01
 -4.553940836E-10 5.478662252E-01
 -4.471581161E-10 5.569721460E-01
 -4.386657981E-10 5.662291050E-01
 -4.304263890E-10 5.756406188E-01
 -4.219479488E-10 5.852082372E-01
 -4.137230558E-10 5.949355960E-01
 -4.052765623E-10 6.048242450E-01
 -3.970837270E-10 6.148780584E-01
 -3.886866107E-10 6.250987053E-01
 -3.805429860E-10 6.354899406E-01
 -3.722123998E-10 6.460535526E-01
 -3.641345558E-10 6.567935944E-01
 -3.558869310E-10 6.677117348E-01
 -3.478908550E-10 6.788122654E-01
 -3.397418180E-10 6.900969744E-01
 -3.318429420E-10 7.015700340E-01
 -3.238075641E-10 7.132335901E-01
 -3.160204320E-10 7.250918150E-01
 -3.081130906E-10 7.371467352E-01
 -3.004514970E-10 7.494029999E-01
 -2.926853204E-10 7.618627548E-01
 -2.851621994E-10 7.745305300E-01
 -2.775498720E-10 7.874084711E-01
 -2.701772972E-10 8.005017042E-01
 -2.627311979E-10 8.138118982E-01
 -2.555197720E-10 8.273445368E-01
 -2.482507255E-10 8.411017656E-01
 -2.412102462E-10 8.550888300E-01
 -2.341278837E-10 8.693079948E-01
 -2.279967465E-10 8.822281361E-01
 -2.272679683E-10 8.837646246E-01
 -2.203809357E-10 8.984612226E-01
 -2.137090782E-10 9.134032726E-01
 -2.070260768E-10 9.285932779E-01
 -2.005499516E-10 9.440371990E-01
 -1.940775596E-10 9.597373009E-01
 -1.878041472E-10 9.756997824E-01
 -1.815479850E-10 9.919271469E-01
 -1.754831558E-10 1.008425713E+00
 -1.694479973E-10 1.025197983E+00
 -1.635968166E-10 1.042250633E+00
 -1.577864922E-10 1.059586167E+00
 -1.521530957E-10 1.077211618E+00
 -1.465706168E-10 1.095129371E+00
 -1.411583073E-10 1.113346815E+00
 -1.358058110E-10 1.131866455E+00
 -1.306170866E-10 1.150695682E+00
 -1.254959747E-10 1.169837356E+00
 -1.205324451E-10 1.189299107E+00
 -1.156433282E-10 1.209083796E+00
 -1.109058331E-10 1.229199290E+00
 -1.062486002E-10 1.249648571E+00
 -1.017373338E-10 1.270439625E+00
 -9.731112444E-11 1.291575909E+00
 -9.302539294E-11 1.313065529E+00
 -8.882869440E-11 1.334911942E+00
 -8.476722796E-11 1.357123494E+00
 -8.079787533E-11 1.379703879E+00
 -7.695867554E-11 1.402661681E+00
 -7.321388634E-11 1.426000476E+00
 -6.959428867E-11 1.449729681E+00
 -6.607057262E-11 1.473852873E+00
 -6.266733660E-11 1.498379350E+00
 -5.936072467E-11 1.523313046E+00
 -5.616996798E-11 1.548663616E+00
 -5.307587356E-11 1.574435115E+00
 -5.009309981E-11 1.600637674E+00
 -4.720640892E-11 1.627274990E+00
 -4.442658741E-11 1.654358149E+00
 -4.174157200E-11 1.681890965E+00
 -3.915915162E-11 1.709883928E+00
 -3.666967771E-11 1.738342047E+00
 -3.427848977E-11 1.767276049E+00
 -3.197791337E-11 1.796690464E+00
 -2.977137981E-11 1.826596737E+00
 -2.765256427E-11 1.856999874E+00
 -2.562356230E-11 1.887911558E+00
 -2.367899453E-11 1.919336319E+00
 -2.182001628E-11 1.951287031E+00
 -2.004173737E-11 1.983768225E+00
 -1.834486729E-11 2.016792774E+00
 -1.672459914E-11 2.050365925E+00
 -1.518154352E-11 2.084500551E+00
 -1.371070184E-11 2.119202375E+00
 -1.231286600E-11 2.154484510E+00
 -1.098262193E-11 2.190352678E+00
 -9.721144896E-12 2.226821184E+00
 -8.522428423E-12 2.263895512E+00
 -7.388265347E-12 2.301589727E+00
 -6.311888512E-12 2.339910507E+00
 -5.295824976E-12 2.378872156E+00
 -4.332498769E-12 2.418481350E+00
 -3.425237307E-12 2.458753347E+00
 -2.565631518E-12 2.499694347E+00
 -1.757852002E-12 2.541320086E+00
 -9.926520326E-13 2.583637953E+00
 -2.750502191E-13 2.626663685E+00
 4.049929337E-13 2.670404434E+00
 1.041679438E-12 2.714876890E+00
 1.645739859E-12 2.760088682E+00
 2.210675870E-12 2.806056976E+00
 2.747725008E-12 2.852789164E+00
 3.249805590E-12 2.900303364E+00
 3.729108168E-12 2.948607445E+00
 4.178164325E-12 2.997719765E+00
 4.607460247E-12 3.047648430E+00
 5.009147177E-12 3.098412752E+00
 5.401200320E-12 3.150020838E+00
 5.776234525E-12 3.202492714E+00
 6.124692333E-12 3.255836725E+00
 6.437688924E-12 3.310073614E+00
 6.783329974E-12 3.365211964E+00
 7.157677662E-12 3.421273708E+00
 6.930376845E-12 3.478267193E+00
 6.050993907E-12 3.536214828E+00
 0.000000000E+00 3.595125675E+00
ZONE T="CFL3D, Slc: X=0.688"
 0.000000000E+00 0.000000000E+00
 0.000000000E+00 2.890825272E-06
 0.000000000E+00 5.811452866E-06
 0.000000000E+00 8.732080460E-06
 0.000000000E+00 1.165270805E-05
 0.000000000E+00 1.457333565E-05
 0.000000000E+00 1.752376556E-05
 9.789934488E-12 2.044439316E-05
 2.596710520E-11 2.339482307E-05
 2.009470090E-10 2.634525299E-05
 4.765330908E-10 2.929568291E-05
 1.663461813E-09 3.224611282E-05
 3.399149406E-09 3.522634506E-05
 8.197258872E-09 3.820657730E-05
 1.453593867E-08 4.118680954E-05
 2.850670633E-08 4.419684410E-05
 4.589166380E-08 4.720687866E-05
 7.907393496E-08 5.024671555E-05
 1.180244524E-07 5.328655243E-05
 1.857862770E-07 5.635619164E-05
 2.615082337E-07 5.942583084E-05
 3.838741236E-07 6.249547005E-05
 5.182433256E-07 6.562471390E-05
 7.258453252E-07 6.875395775E-05
 9.430939940E-07 7.188320160E-05
 1.267341872E-06 7.504224777E-05
 1.602154384E-06 7.823109627E-05
 2.081534603E-06 8.144974709E-05
 2.573435268E-06 8.466839790E-05
 3.229791218E-06 8.791685104E-05
 3.920530162E-06 9.119510651E-05
 4.780347354E-06 9.450316429E-05
 5.694622814E-06 9.784102440E-05
 6.771159860E-06 1.012086868E-04
 7.904039194E-06 1.045763493E-04
 9.159034562E-06 1.079738140E-04
 1.048801823E-05 1.114308834E-04
 1.187672842E-05 1.148879528E-04
 1.331204021E-05 1.184046268E-04
 1.475800036E-05 1.219511032E-04
 1.615611109E-05 1.254975796E-04
 1.750732008E-05 1.291036606E-04
 1.871191671E-05 1.327395439E-04
 1.981121022E-05 1.364350319E-04
 2.061676059E-05 1.401603222E-04
 2.127568405E-05 1.438856125E-04
 2.149665670E-05 1.477003098E-04
 2.158677853E-05 1.515150070E-04
 2.106180909E-05 1.553893089E-04
 2.045481051E-05 1.593232155E-04
 1.909387356E-05 1.632869244E-04
 1.765936213E-05 1.672804356E-04
 1.550474008E-05 1.713335514E-04
 1.320951742E-05 1.754462719E-04
 1.028386214E-05 1.795887947E-04
 7.168248885E-06 1.837909222E-04
 3.528311026E-06 1.880228519E-04
 -3.386163883E-07 1.923143864E-04
 -4.661988442E-06 1.966655254E-04
 -9.233066521E-06 2.010762691E-04
 -1.416547275E-05 2.055466175E-04
 -1.932526175E-05 2.100467682E-04
 -2.480828698E-05 2.146363258E-04
 -3.050783562E-05 2.192556858E-04
 -3.643178206E-05 2.239346504E-04
 -4.265506141E-05 2.287030220E-04
 -4.906587492E-05 2.335309982E-04
 -5.569903078E-05 2.383887768E-04
 -6.251526793E-05 2.433359623E-04
 -6.955424033E-05 2.483427525E-04
 -7.673590153E-05 2.534389496E-04
 -8.413452451E-05 2.585649490E-04
 -9.170291742E-05 2.638101578E-04
 -9.945949569E-05 2.690851688E-04
 -1.073364110E-04 2.744495869E-04
 -1.154813290E-04 2.799034119E-04
 -1.236984826E-04 2.854168415E-04
 -1.321520976E-04 2.910196781E-04
 -1.406836527E-04 2.966821194E-04
 -1.494426106E-04 3.024339676E-04
 -1.583195990E-04 3.082752228E-04
 -1.674051600E-04 3.142058849E-04
 -1.765678317E-04 3.201961517E-04
 -1.859820186E-04 3.263056278E-04
 -1.954789768E-04 3.324747086E-04
 -2.052257187E-04 3.387629986E-04
 -2.150450746E-04 3.451108932E-04
 -2.251056285E-04 3.515779972E-04
 -2.352920419E-04 3.581345081E-04
 -2.457118826E-04 3.648102283E-04
 -2.561931906E-04 3.715455532E-04
 -2.668834932E-04 3.784000874E-04
 -2.778001362E-04 3.853738308E-04
 -2.888640447E-04 3.924369812E-04
 -3.001384030E-04 3.996193409E-04
 -3.115366853E-04 4.068911076E-04
 -3.231519950E-04 4.142820835E-04
 -3.349239996E-04 4.217922688E-04
 -3.469626245E-04 4.294216633E-04
 -3.590976703E-04 4.371404648E-04
 -3.715408384E-04 4.450082779E-04
 -3.841146245E-04 4.529953003E-04
 -3.969238314E-04 4.611015320E-04
 -4.098367936E-04 4.692971706E-04
 -4.230740306E-04 4.776418209E-04
 -4.364883644E-04 4.861354828E-04
 -4.501481890E-04 4.947483540E-04
 -4.639843828E-04 5.035102367E-04
 -4.780689196E-04 5.123913288E-04
 -4.923405359E-04 5.214214325E-04
 -5.069186445E-04 5.306005478E-04
 -5.216929712E-04 5.399286747E-04
 -5.367807462E-04 5.494058132E-04
 -5.519799888E-04 5.590021610E-04
 -5.675204447E-04 5.687773228E-04
 -5.832490278E-04 5.787014961E-04
 -5.992838996E-04 5.887746811E-04
 -6.155648152E-04 5.990266800E-04
 -6.321570254E-04 6.094276905E-04
 -6.489551743E-04 6.200075150E-04
 -6.660433719E-04 6.307363510E-04
 -6.834396627E-04 6.416738033E-04
 -7.011119742E-04 6.527602673E-04
 -7.190576289E-04 6.640255451E-04
 -7.373083499E-04 6.754696369E-04
 -7.558522047E-04 6.870925426E-04
 -7.747283671E-04 6.989240646E-04
 -7.938904455E-04 7.109344006E-04
 -8.133187075E-04 7.231235504E-04
 -8.331860299E-04 7.355511189E-04
 -8.532518987E-04 7.481276989E-04
 -8.737570606E-04 7.609426975E-04
 -8.945378358E-04 7.739663124E-04
 -9.157486493E-04 7.871985435E-04
 -9.372091736E-04 8.006393909E-04
 -9.590748232E-04 8.142888546E-04
 -9.812461212E-04 8.281767368E-04
 -1.003886689E-03 8.422732353E-04
 -1.026809798E-03 8.566081524E-04
 -1.050189720E-03 8.711814880E-04
 -1.073868945E-03 8.859932423E-04
 -1.098044566E-03 9.010434151E-04
 -1.122514368E-03 9.163320065E-04
 -1.147536561E-03 9.318888187E-04
 -1.172836055E-03 9.476840496E-04
 -1.198659535E-03 9.637475014E-04
 -1.224820036E-03 9.800791740E-04
 -1.251521753E-03 9.966790676E-04
 -1.278519048E-03 1.013517380E-03
 -1.306176768E-03 1.030683517E-03
 -1.334097586E-03 1.048088074E-03
 -1.362596406E-03 1.065790653E-03
 -1.391481957E-03 1.083791256E-03
 -1.420974149E-03 1.102089882E-03
 -1.450839452E-03 1.120686531E-03
 -1.481308602E-03 1.139581203E-03
 -1.512201619E-03 1.158803701E-03
 -1.543705235E-03 1.178324223E-03
 -1.575621776E-03 1.198172569E-03
 -1.608199324E-03 1.218348742E-03
 -1.641173265E-03 1.238852739E-03
 -1.674848492E-03 1.259714365E-03
 -1.708947122E-03 1.280903816E-03
 -1.743762172E-03 1.302450895E-03
 -1.778971287E-03 1.324325800E-03
 -1.814938616E-03 1.346588135E-03
 -1.851354260E-03 1.369208097E-03
 -1.888536033E-03 1.392215490E-03
 -1.926221186E-03 1.415610313E-03
 -1.964632422E-03 1.439362764E-03
 -2.003568690E-03 1.463532448E-03
 -2.043272601E-03 1.488089561E-03
 -2.083527390E-03 1.513063908E-03
 -2.124564722E-03 1.538425684E-03
 -2.166157123E-03 1.564234495E-03
 -2.208564430E-03 1.590460539E-03
 -2.251519356E-03 1.617103815E-03
 -2.295328304E-03 1.644194126E-03
 -2.339774277E-03 1.671761274E-03
 -2.385056578E-03 1.699775457E-03
 -2.430939581E-03 1.728236675E-03
 -2.477689181E-03 1.757174730E-03
 -2.525097458E-03 1.786589622E-03
 -2.573405392E-03 1.816511154E-03
 -2.622430446E-03 1.846939325E-03
 -2.672290662E-03 1.877844334E-03
 -2.722862409E-03 1.909255981E-03
 -2.774347551E-03 1.941204071E-03
 -2.826633165E-03 1.973688602E-03
 -2.879817970E-03 2.006709576E-03
 -2.933753189E-03 2.040266991E-03
 -2.988616237E-03 2.074390650E-03
 -3.044284182E-03 2.109080553E-03
 -3.100863192E-03 2.144336700E-03
 -3.158320207E-03 2.180188894E-03
 -3.216717159E-03 2.216637135E-03
 -3.275956027E-03 2.253681421E-03
 -3.336161608E-03 2.291351557E-03
 -3.397250781E-03 2.329647541E-03
 -3.459283384E-03 2.368569374E-03
 -3.522203304E-03 2.408146858E-03
 -3.586093662E-03 2.448379993E-03
 -3.650931176E-03 2.489298582E-03
 -3.716711886E-03 2.530872822E-03
 -3.783409717E-03 2.573162317E-03
 -3.851073328E-03 2.616137266E-03
 -3.919622861E-03 2.659827471E-03
 -3.989203833E-03 2.704262733E-03
 -4.059614614E-03 2.749413252E-03
 -4.131073132E-03 2.795338631E-03
 -4.203318618E-03 2.842009068E-03
 -4.276581109E-03 2.889454365E-03
 -4.350635689E-03 2.937704325E-03
 -4.425717983E-03 2.986758947E-03
 -4.501460586E-03 3.036618233E-03
 -4.578243941E-03 3.087311983E-03
 -4.655641504E-03 3.138870001E-03
 -4.734047689E-03 3.191262484E-03
 -4.812955856E-03 3.244519234E-03
 -4.893713631E-03 3.298670053E-03
 -4.982934799E-03 3.353714943E-03
 -5.072060041E-03 3.409683704E-03
 -5.153372418E-03 3.466606140E-03
 -5.235495511E-03 3.524452448E-03
 -5.309970584E-03 3.583282232E-03
 -5.385797005E-03 3.643095493E-03
 -5.463728216E-03 3.703892231E-03
 -5.542599596E-03 3.765672445E-03
 -5.623263307E-03 3.828525543E-03
 -5.704807118E-03 3.892421722E-03
 -5.786886904E-03 3.957360983E-03
 -5.869739689E-03 4.023402929E-03
 -5.951752421E-03 4.090547562E-03
 -6.034314167E-03 4.158794880E-03
 -6.114578340E-03 4.228174686E-03
 -6.195207126E-03 4.298716784E-03
 -6.272185594E-03 4.370450974E-03
 -6.349278148E-03 4.443377256E-03
 -6.421441212E-03 4.517525434E-03