TITLE     = "u'v'/Uref^2 profiles CFL3D M=0.875, k-kL-MEAH2015 model"
VARIABLES = "uv","z-z0"
ZONE T="CFL3D, Slc: X=-0.25"
 0.000000000E+00 0.000000000E+00
 0.000000000E+00 3.218650818E-06
 0.000000000E+00 6.467103958E-06
 0.000000000E+00 9.685754776E-06
 0.000000000E+00 1.293420792E-05
 -1.477553155E-06 1.615285873E-05
 -5.511470135E-06 1.940131187E-05
 -9.907367712E-06 2.264976501E-05
 -1.782776053E-05 2.589821815E-05
 -2.619147563E-05 2.917647362E-05
 -3.760286927E-05 3.245472908E-05
 -4.936563710E-05 3.573298454E-05
 -6.359783583E-05 3.901124001E-05
 -7.827085938E-05 4.231929779E-05
 -9.489031800E-05 4.562735558E-05
 -1.118924993E-04 4.896521568E-05
 -1.301469601E-04 5.230307579E-05
 -1.485490211E-04 5.564093590E-05
 -1.678706758E-04 5.900859833E-05
 -1.874360314E-04 6.240606308E-05
 -2.074280928E-04 6.580352783E-05
 -2.275383304E-04 6.923079491E-05
 -2.478947281E-04 7.268786430E-05
 -2.680924372E-04 7.614493370E-05
 -2.883303969E-04 7.963180542E-05
 -3.082772892E-04 8.311867714E-05
 -3.280810779E-04 8.663535118E-05
 -3.478389990E-04 9.021162987E-05
 -3.672111197E-04 9.378790855E-05
 -3.861186560E-04 9.736418724E-05
 -4.049380077E-04 1.010000706E-04
 -4.233937070E-04 1.046657562E-04
 -4.415065341E-04 1.083314419E-04
 -4.591901670E-04 1.120567322E-04
 -4.764672485E-04 1.157820225E-04
 -4.933552700E-04 1.195669174E-04
 -5.099587142E-04 1.233518124E-04
 -5.260745529E-04 1.271963120E-04
 -5.420824164E-04 1.310706139E-04
 -5.574322422E-04 1.349747181E-04
 -5.727303214E-04 1.389086246E-04
 -5.874113413E-04 1.429021358E-04
 -6.020742003E-04 1.469254494E-04
 -6.159911864E-04 1.509785652E-04
 -6.300397217E-04 1.550912857E-04
 -6.433094968E-04 1.592338085E-04
 -6.566171069E-04 1.634061337E-04
 -6.692993920E-04 1.676380634E-04
 -6.820458220E-04 1.719295979E-04
 -6.941301399E-04 1.762509346E-04
 -7.061264478E-04 1.806020737E-04
 -7.176297368E-04 1.850128174E-04
 -7.290559588E-04 1.894831657E-04
 -7.400262402E-04 1.940131187E-04
 -7.507989067E-04 1.985728741E-04
 -7.612805348E-04 2.032220364E-04
 -7.715079701E-04 2.079010010E-04
 -7.813835982E-04 2.126097679E-04
 -7.910536369E-04 2.174079418E-04
 -8.004335104E-04 2.222657204E-04
 -8.095498779E-04 2.271831036E-04
 -8.184774779E-04 2.321600914E-04
 -8.270510007E-04 2.371966839E-04
 -8.354600868E-04 2.422928810E-04
 -8.435066557E-04 2.474486828E-04
 -8.514904766E-04 2.526938915E-04
 -8.590256330E-04 2.579689026E-04
 -8.665756905E-04 2.633631229E-04
 -8.736625896E-04 2.687871456E-04
 -8.807584527E-04 2.743005753E-04
 -8.874222985E-04 2.798736095E-04
 -8.941620472E-04 2.855658531E-04
 -9.004115709E-04 2.912878990E-04
 -9.067248902E-04 2.970993519E-04
 -9.126228979E-04 3.030002117E-04
 -9.185693925E-04 3.089904785E-04
 -9.241497610E-04 3.150701523E-04
 -9.297179640E-04 3.212094307E-04
 -9.349774336E-04 3.274381161E-04
 -9.402252035E-04 3.337562084E-04
 -9.452112135E-04 3.401637077E-04
 -9.501790046E-04 3.466904163E-04
 -9.548909147E-04 3.532767296E-04
 -9.595527081E-04 3.599524498E-04
 -9.640542557E-04 3.667473793E-04
 -9.684782708E-04 3.736317158E-04
 -9.727576980E-04 3.806352615E-04
 -9.769366588E-04 3.876984119E-04
 -9.810224874E-04 3.949105740E-04
 -9.850133210E-04 4.022121429E-04
 -9.888990317E-04 4.096031189E-04
 -9.927011561E-04 4.171133041E-04
 -9.964354103E-04 4.247426987E-04
 -1.000076765E-03 4.324913025E-04
 -1.003666315E-03 4.403591156E-04
 -1.007155282E-03 4.483461380E-04
 -1.010594424E-03 4.564225674E-04
 -1.013946370E-03 4.646480083E-04
 -1.017273986E-03 4.729926586E-04
 -1.020501368E-03 4.814565182E-04
 -1.023729215E-03 4.900693893E-04
 -1.026849844E-03 4.988014698E-04
 -1.029982464E-03 5.076825619E-04
 -1.032998087E-03 5.166828632E-04
 -1.036035130E-03 5.258321762E-04
 -1.038959832E-03 5.351006985E-04
 -1.041925047E-03 5.445480347E-04
 -1.044772216E-03 5.541145802E-04
 -1.047665020E-03 5.638599396E-04
 -1.050445717E-03 5.737245083E-04
 -1.053269836E-03 5.837678909E-04
 -1.055990579E-03 5.939602852E-04
 -1.058743102E-03 6.043016911E-04
 -1.061417162E-03 6.148219109E-04
 -1.064118347E-03 6.254911423E-04
 -1.066731988E-03 6.363093853E-04
 -1.069385675E-03 6.473362446E-04
 -1.071961829E-03 6.585121155E-04
 -1.074574655E-03 6.698966026E-04
 -1.077110763E-03 6.814301014E-04
 -1.079674345E-03 6.931424141E-04
 -1.082181931E-03 7.050633430E-04
 -1.084712101E-03 7.171630859E-04
 -1.087188255E-03 7.294714451E-04
 -1.089685014E-03 7.419586182E-04
 -1.092135790E-03 7.546544075E-04
 -1.094606705E-03 7.675588131E-04
 -1.097031753E-03 7.806718349E-04
 -1.099470537E-03 7.939636707E-04
 -1.101875328E-03 8.074939251E-04
 -1.104294905E-03 8.212327957E-04
 -1.106676413E-03 8.351802826E-04
 -1.109074219E-03 8.493661880E-04
 -1.111439546E-03 8.637905121E-04
 -1.113815466E-03 8.784234524E-04
 -1.116163796E-03 8.932948112E-04
 -1.118528191E-03 9.084343910E-04
 -1.120861154E-03 9.237825871E-04
 -1.123207738E-03 9.393990040E-04
 -1.125528826E-03 9.552538395E-04
 -1.127861091E-03 9.713768959E-04
 -1.130173565E-03 9.877681732E-04
 -1.132493373E-03 1.004427671E-03
 -1.134793623E-03 1.021355391E-03
 -1.137100277E-03 1.038551331E-03
 -1.139389467E-03 1.056015491E-03
 -1.141685294E-03 1.073777676E-03
 -1.143963775E-03 1.091808081E-03
 -1.146250521E-03 1.110166311E-03
 -1.148520736E-03 1.128792763E-03
 -1.150793512E-03 1.147717237E-03
 -1.153057441E-03 1.166969538E-03
 -1.155320555E-03 1.186519861E-03
 -1.157575054E-03 1.206398010E-03
 -1.159829786E-03 1.226603985E-03
 -1.162077649E-03 1.247137785E-03
 -1.164319692E-03 1.267999411E-03
 -1.166560687E-03 1.289218664E-03
 -1.168794464E-03 1.310795546E-03
 -1.171026845E-03 1.332700253E-03
 -1.173247350E-03 1.354962587E-03
 -1.175472396E-03 1.377582550E-03
 -1.177681144E-03 1.400589943E-03
 -1.179896877E-03 1.423954964E-03
 -1.182091888E-03 1.447707415E-03
 -1.184302033E-03 1.471877098E-03
 -1.186482725E-03 1.496404409E-03
 -1.188683556E-03 1.521378756E-03
 -1.190852839E-03 1.546740532E-03
 -1.193039701E-03 1.572489738E-03
 -1.195194433E-03 1.598685980E-03
 -1.197371515E-03 1.625299454E-03
 -1.199510880E-03 1.652359962E-03
 -1.201677253E-03 1.679867506E-03
 -1.203799038E-03 1.707822084E-03
 -1.205950161E-03 1.736223698E-03
 -1.208055532E-03 1.765102148E-03
 -1.210193965E-03 1.794457436E-03
 -1.212282223E-03 1.824319363E-03
 -1.214401913E-03 1.854628325E-03
 -1.216471544E-03 1.885473728E-03
 -1.218574354E-03 1.916795969E-03
 -1.220621052E-03 1.948624849E-03
 -1.222704537E-03 1.980990171E-03
 -1.224733074E-03 2.013921738E-03
 -1.226795954E-03 2.047359943E-03
 -1.228800858E-03 2.081364393E-03
 -1.230841619E-03 2.115905285E-03
 -1.232823241E-03 2.151042223E-03
 -1.234841649E-03 2.186745405E-03
 -1.236795331E-03 2.223014832E-03
 -1.238788827E-03 2.259910107E-03
 -1.240713289E-03 2.297401428E-03
 -1.242678147E-03 2.335518599E-03
 -1.244576531E-03 2.374291420E-03
 -1.246513799E-03 2.413660288E-03
 -1.248381799E-03 2.453684807E-03
 -1.250291360E-03 2.494364977E-03
 -1.252128277E-03 2.535700798E-03
 -1.254009199E-03 2.577751875E-03
 -1.255815383E-03 2.620488405E-03
 -1.257665223E-03 2.663940191E-03
 -1.259437529E-03 2.708107233E-03
 -1.261251979E-03 2.752959728E-03
 -1.262987847E-03 2.798587084E-03
 -1.264768071E-03 2.844959497E-03
 -1.266466454E-03 2.892106771E-03
 -1.268209773E-03 2.940028906E-03
 -1.269867877E-03 2.988755703E-03
 -1.271570567E-03 3.038257360E-03
 -1.273185946E-03 3.088593483E-03
 -1.274846261E-03 3.139734268E-03
 -1.276416006E-03 3.191739321E-03
 -1.278032665E-03 3.244638443E-03
 -1.279554446E-03 3.298372030E-03
 -1.281121396E-03 3.352969885E-03
 -1.282592537E-03 3.408491611E-03
 -1.284108730E-03 3.464937210E-03
 -1.285527018E-03 3.522336483E-03
 -1.286988147E-03 3.580659628E-03
 -1.288349973E-03 3.639936447E-03
 -1.289753127E-03 3.700196743E-03
 -1.291055698E-03 3.761470318E-03
 -1.292397617E-03 3.823757172E-03
 -1.293637091E-03 3.887057304E-03
 -1.294913469E-03 3.951400518E-03
 -1.296086004E-03 4.016786814E-03
 -1.297293464E-03 4.083275795E-03
 -1.298396848E-03 4.150897264E-03
 -1.299531432E-03 4.219591618E-03
 -1.300560427E-03 4.289448261E-03
 -1.301618293E-03 4.360437393E-03
 -1.302568358E-03 4.432588816E-03
 -1.303545432E-03 4.505962133E-03
 -1.304413774E-03 4.580557346E-03
 -1.305305166E-03 4.656344652E-03
 -1.306086546E-03 4.733443260E-03
 -1.306888065E-03 4.811763763E-03
 -1.307577710E-03 4.891395569E-03
 -1.308284700E-03 4.972338676E-03
 -1.308877836E-03 5.054622889E-03
 -1.309485291E-03 5.138278008E-03
 -1.309977262E-03 5.223304033E-03
 -1.310479944E-03 5.309730768E-03
 -1.310865395E-03 5.397617817E-03
 -1.311258064E-03 5.486935377E-03
 -1.311531407E-03 5.577743053E-03
 -1.311808475E-03 5.670011044E-03
 -1.311964239E-03 5.763858557E-03
 -1.312119886E-03 5.859255791E-03
 -1.312152133E-03 5.956202745E-03
 -1.312180539E-03 6.054759026E-03
 -1.312083099E-03 6.154954433E-03
 -1.311977976E-03 6.256788969E-03
 -1.311744447E-03 6.360322237E-03
 -1.311499043E-03 6.465584040E-03
 -1.311122905E-03 6.572574377E-03
 -1.310730702E-03 6.681323051E-03
 -1.310204738E-03 6.791889668E-03
 -1.309658634E-03 6.904274225E-03
 -1.308975741E-03 7.018506527E-03
 -1.308268285E-03 7.134646177E-03
 -1.307420898E-03 7.252722979E-03
 -1.306544757E-03 7.372707129E-03
 -1.305524842E-03 7.494747639E-03
 -1.304471749E-03 7.618725300E-03
 -1.303271274E-03 7.744818926E-03
 -1.302032615E-03 7.872968912E-03
 -1.300643664E-03 8.003234863E-03
 -1.299210591E-03 8.135706186E-03
 -1.297623734E-03 8.270323277E-03
 -1.295988332E-03 8.407175541E-03
 -1.294194022E-03 8.546292782E-03
 -1.292346278E-03 8.687704802E-03
 -1.290334971E-03 8.831501007E-03
 -1.288265456E-03 8.977621794E-03
 -1.286028069E-03 9.126186371E-03
 -1.283725956E-03 9.277224541E-03
 -1.281251782E-03 9.430736303E-03
 -1.278707059E-03 9.586811066E-03
 -1.275985152E-03 9.745448828E-03
 -1.273186877E-03 9.906738997E-03
 -1.270206296E-03 1.007068157E-02
 -1.267143642E-03 1.023733616E-02
 -1.263892744E-03 1.040676236E-02
 -1.260553487E-03 1.057898998E-02
 -1.257020631E-03 1.075407863E-02
 -1.253393013E-03 1.093205810E-02
 -1.249566325E-03 1.111298800E-02
 -1.245638239E-03 1.129689813E-02
 -1.241504331E-03 1.148387790E-02
 -1.237262506E-03 1.167392731E-02
 -1.232808572E-03 1.186716557E-02
 -1.228239620E-03 1.206356287E-02
 -1.223452738E-03 1.226323843E-02
 -1.218543039E-03 1.246619225E-02
 -1.213409123E-03 1.267254353E-02
 -1.208144240E-03 1.288229227E-02
 -1.202649204E-03 1.309552789E-02
 -1.197014702E-03 1.331228018E-02
 -1.191143063E-03 1.353263855E-02
 -1.185123692E-03 1.375663280E-02
 -1.178860664E-03 1.398435235E-02
 -1.172440941E-03 1.421582699E-02
 -1.165770576E-03 1.445114613E-02
 -1.158933854E-03 1.469036937E-02
 -1.151839970E-03 1.493355632E-02
 -1.144570881E-03 1.518073678E-02
 -1.137035084E-03 1.543205976E-02
 -1.129313954E-03 1.568752527E-02
 -1.121320180E-03 1.594722271E-02
 -1.113129547E-03 1.621124148E-02
 -1.104658586E-03 1.647961140E-02
 -1.095981221E-03 1.675242186E-02
 -1.087013516E-03 1.702979207E-02
 -1.077828696E-03 1.731172204E-02
 -1.068345271E-03 1.759833097E-02
 -1.058631809E-03 1.788970828E-02
 -1.048611011E-03 1.818591356E-02
 -1.038350747E-03 1.848697662E-02
 -1.027772087E-03 1.879307628E-02
 -1.016940107E-03 1.910424232E-02
 -1.005781116E-03 1.942056417E-02
 -9.943561163E-04 1.974213123E-02
 -9.825937450E-04 2.006903291E-02
 -9.705534903E-04 2.040132880E-02
 -9.581653867E-04 2.073913813E-02
 -9.454847896E-04 2.108255029E-02
 -9.324450511E-04 2.143165469E-02
 -9.190987912E-04 2.178657055E-02
 -9.053839021E-04 2.214732766E-02
 -8.913484053E-04 2.251410484E-02
 -8.769328124E-04 2.288693190E-02
 -8.621836896E-04 2.326592803E-02
 -8.470388129E-04 2.365124226E-02
 -8.315455634E-04 2.404293418E-02
 -8.156458498E-04 2.444112301E-02
 -7.993861218E-04 2.484586835E-02
 -7.827087538E-04 2.525737882E-02
 -7.656575181E-04 2.567568421E-02
 -7.481817156E-04 2.610093355E-02
 -7.303185994E-04 2.653321624E-02
 -7.120217779E-04 2.697271109E-02
 -6.933276891E-04 2.741944790E-02
 -6.741952966E-04 2.787363529E-02
 -6.546557997E-04 2.833530307E-02
 -6.346759037E-04 2.880465984E-02
 -6.142817438E-04 2.928176522E-02
 -5.934498622E-04 2.976682782E-02
 -5.722009810E-04 3.025987744E-02
 -5.505225272E-04 3.076115251E-02
 -5.284270155E-04 3.127071261E-02
 -5.059193936E-04 3.178873658E-02
 -4.830018734E-04 3.231534362E-02
 -4.596991057E-04 3.285068274E-02
 -4.360027669E-04 3.339490294E-02
 -4.119605292E-04 3.394815326E-02
 -3.875555994E-04 3.451055288E-02
 -3.628610866E-04 3.508234024E-02
 -3.378522524E-04 3.566354513E-02
 -3.126388183E-04 3.625443578E-02
 -2.871801844E-04 3.685510159E-02
 -2.616376150E-04 3.746575117E-02
 -2.359528589E-04 3.808647394E-02
 -2.103466250E-04 3.871756792E-02
 -1.847334934E-04 3.935906291E-02
 -1.594127534E-04 4.001125693E-02
 -1.343152253E-04 4.067423940E-02
 -1.098724024E-04 4.134821892E-02
 -8.644549962E-05 4.203337431E-02
 -6.484401820E-05 4.272991419E-02
 -4.574590275E-05 4.343798757E-02
 -3.061760799E-05 4.415783286E-02
 -1.848803549E-05 4.488956928E-02
 -1.108218657E-05 4.563349485E-02
 -5.580655852E-06 4.638975859E-02
 -3.206284418E-06 4.715856910E-02
 -1.493734430E-06 4.794010520E-02
 -9.696705092E-07 4.873463511E-02
 -5.652902928E-07 4.954230785E-02
 -4.235515974E-07 5.036345124E-02
 -2.983832985E-07 5.119815469E-02
 -2.240977466E-07 5.204674602E-02
 -1.579216331E-07 5.290940404E-02
 -1.152477225E-07 5.378639698E-02
 -7.776069566E-08 5.467790365E-02
 -5.482828769E-08 5.558425188E-02
 -3.477541810E-08 5.650559068E-02
 -2.302676982E-08 5.744224787E-02
 -1.309838371E-08 5.839440227E-02
 -8.110569993E-09 5.936244130E-02
 -4.050377811E-09 6.034645438E-02
 -2.572817071E-09 6.134688854E-02
 -1.349934386E-09 6.236386299E-02
 -1.019861640E-09 6.339776516E-02
 -7.374332256E-10 6.444877386E-02
 -6.744988457E-10 6.551724672E-02
 -6.195308710E-10 6.660345197E-02
 -6.101856243E-10 6.770771742E-02
 -6.020831056E-10 6.883025169E-02
 -6.027393029E-10 6.997147202E-02
 -6.035596467E-10 7.113158703E-02
 -6.059834856E-10 7.231101394E-02
 -6.084059367E-10 7.350996137E-02
 -6.111158246E-10 7.472887635E-02
 -6.137966801E-10 7.596796751E-02
 -6.165332689E-10 7.722765207E-02
 -6.192326651E-10 7.850822806E-02
 -6.219495474E-10 7.981011271E-02
 -6.246225759E-10 8.113354445E-02
 -6.273076503E-10 8.247900009E-02
 -6.299412658E-10 8.384674788E-02
 -6.325864277E-10 8.523726463E-02
 -6.351722481E-10 8.665078878E-02
 -6.377703365E-10 8.808785677E-02
 -6.403009789E-10 8.954870701E-02
 -6.428454435E-10 9.103390574E-02
 -6.453138024E-10 9.254369140E-02
 -6.477976489E-10 9.407857060E-02
 -6.501958416E-10 9.563890100E-02
 -6.526112983E-10 9.722524881E-02
 -6.549308318E-10 9.883782268E-02
 -6.572694611E-10 1.004772484E-01
 -6.595020086E-10 1.021438241E-01
 -6.617560944E-10 1.038381457E-01
 -6.638931627E-10 1.055605412E-01
 -6.660542673E-10 1.073116064E-01
 -6.680870857E-10 1.090916991E-01
 -6.701466049E-10 1.109014153E-01
 -6.720660140E-10 1.127411127E-01
 -6.740149550E-10 1.146114469E-01
 -6.758116289E-10 1.165127158E-01
 -6.776409434E-10 1.184456944E-01
 -6.793057783E-10 1.204106808E-01
 -6.810067510E-10 1.224084198E-01
 -6.825304766E-10 1.244392097E-01
 -6.840935596E-10 1.265038252E-01
 -6.854667389E-10 1.286026835E-01
 -6.868828284E-10 1.307364702E-01
 -6.880960801E-10 1.329056025E-01
 -6.893559612E-10 1.351108551E-01
 -6.904000704E-10 1.373526454E-01
 -6.914945838E-10 1.396318078E-01
 -6.923604468E-10 1.419487000E-01
 -6.932807106E-10 1.443042159E-01
 -6.939593344E-10 1.466987729E-01
 -6.946962450E-10 1.491332054E-01
 -6.951788589E-10 1.516079307E-01
 -6.957239784E-10 1.541239023E-01
 -6.960021448E-10 1.566815376E-01
 -6.963470911E-10 1.592818499E-01
 -6.964128163E-10 1.619251370E-01
 -6.965495403E-10 1.646125913E-01
 -6.963951082E-10 1.673445106E-01
 -6.963159493E-10 1.701219678E-01
 -6.959341436E-10 1.729454398E-01
 -6.956319409E-10 1.758159995E-01
 -6.950159337E-10 1.787340641E-01
 -6.944840258E-10 1.817008257E-01
 -6.936277108E-10 1.847166419E-01
 -6.928599916E-10 1.877827644E-01
 -6.917577067E-10 1.908997297E-01
 -6.907484584E-10 1.940686107E-01
 -6.893950966E-10 1.972900629E-01
 -6.881394343E-10 2.005650997E-01
 -6.865308877E-10 2.038944960E-01
 -6.850244261E-10 2.072793841E-01
 -6.831571420E-10 2.107203007E-01
 -6.813964948E-10 2.142186761E-01
 -6.792674756E-10 2.177749276E-01
 -6.772495897E-10 2.213904858E-01
 -6.748567261E-10 2.250660062E-01
 -6.725796031E-10 2.288027406E-01
 -6.699217292E-10 2.326014638E-01
 -6.673840924E-10 2.364635468E-01
 -6.644608197E-10 2.403895259E-01
 -6.616621695E-10 2.443810701E-01
 -6.584738310E-10 2.484387159E-01
 -6.554146115E-10 2.525640130E-01
 -6.519624285E-10 2.567577362E-01
 -6.486439719E-10 2.610213161E-01
 -6.449301648E-10 2.653556466E-01
 -6.413545250E-10 2.697621584E-01
 -6.373822581E-10 2.742418051E-01
 -6.335524882E-10 2.787960768E-01
 -6.293257582E-10 2.834258676E-01
 -6.252458551E-10 2.881329060E-01
 -6.207695469E-10 2.929179072E-01
 -6.164442290E-10 2.977827787E-01
 -6.117241158E-10 3.027282357E-01
 -6.071594338E-10 3.077562451E-01
 -6.022023991E-10 3.128675222E-01
 -5.974049588E-10 3.180640936E-01
 -5.922184410E-10 3.233468533E-01
 -5.871957365E-10 3.287177086E-01
 -5.817883952E-10 3.341775537E-01
 -5.765489752E-10 3.397285342E-01
 -5.709300810E-10 3.453715444E-01
 -5.654831603E-10 3.511086106E-01
 -5.596630381E-10 3.569408655E-01
 -5.540187198E-10 3.628703952E-01
 -5.480082499E-10 3.688982725E-01
 -5.421774141E-10 3.750267029E-01
 -5.359883648E-10 3.812567592E-01
 -5.299827244E-10 3.875907063E-01
 -5.236274747E-10 3.940297365E-01
 -5.174591866E-10 4.005761743E-01
 -5.109509482E-10 4.072311521E-01
 -5.046330021E-10 4.139972329E-01
 -4.979854307E-10 4.208754301E-01
 -4.915312601E-10 4.278684855E-01
 -4.847584001E-10 4.349774122E-01
 -4.781820495E-10 4.422050714E-01
 -4.712986668E-10 4.495525360E-01
 -4.646146801E-10 4.570226073E-01
 -4.576356794E-10 4.646165967E-01
 -4.508586560E-10 4.723373055E-01
 -4.437994416E-10 4.801860452E-01
 -4.369444806E-10 4.881657958E-01
 -4.298204848E-10 4.962779284E-01
 -4.229029071E-10 5.045254230E-01
 -4.157298950E-10 5.129096508E-01
 -4.087649108E-10 5.214339495E-01
 -4.015585087E-10 5.300995708E-01
 -3.945617444E-10 5.389098525E-01
 -3.873376619E-10 5.478662252E-01
 -3.803243553E-10 5.569721460E-01
 -3.730980802E-10 5.662291050E-01
 -3.660834413E-10 5.756406188E-01
 -3.588703501E-10 5.852082372E-01
 -3.518693947E-10 5.949355960E-01
 -3.446845864E-10 6.048242450E-01
 -3.377120805E-10 6.148780584E-01
 -3.305701546E-10 6.250987053E-01
 -3.236404200E-10 6.354899406E-01
 -3.165557816E-10 6.460535526E-01
 -3.096826962E-10 6.567935944E-01
 -3.026690565E-10 6.677117348E-01
 -2.958660539E-10 6.788122654E-01
 -2.889365969E-10 6.900969744E-01
 -2.822166389E-10 7.015700340E-01
 -2.753840211E-10 7.132335901E-01
 -2.687592926E-10 7.250918150E-01
 -2.620355599E-10 7.371467352E-01
 -2.555176348E-10 7.494029999E-01
 -2.489138340E-10 7.618627548E-01
 -2.425136203E-10 7.745305300E-01
 -2.360404094E-10 7.874084711E-01
 -2.297680518E-10 8.005017042E-01
 -2.234358809E-10 8.138118982E-01
 -2.173003583E-10 8.273445368E-01
 -2.111183450E-10 8.411017656E-01
 -2.051278730E-10 8.550888300E-01
 -1.991040943E-10 8.693079948E-01
 -1.938869343E-10 8.822281361E-01
 -1.932667776E-10 8.837646246E-01
 -1.874085609E-10 8.984612226E-01
 -1.817307832E-10 9.134032726E-01
 -1.760454560E-10 9.285932779E-01
 -1.705336844E-10 9.440371990E-01
 -1.650268255E-10 9.597373009E-01
 -1.596869581E-10 9.756997824E-01
 -1.543633138E-10 9.919271469E-01
 -1.492003326E-10 1.008425713E+00
 -1.440639552E-10 1.025197983E+00
 -1.390821625E-10 1.042250633E+00
 -1.341363548E-10 1.059586167E+00
 -1.293392615E-10 1.077211618E+00
 -1.245865772E-10 1.095129371E+00
 -1.199770144E-10 1.113346815E+00
 -1.154193061E-10 1.131866455E+00
 -1.109994111E-10 1.150695682E+00
 -1.066379277E-10 1.169837356E+00
 -1.024091159E-10 1.189299107E+00
 -9.824440567E-11 1.209083796E+00
 -9.420745434E-11 1.229199290E+00
 -9.023948255E-11 1.249648571E+00
 -8.639461369E-11 1.270439625E+00
 -8.262273504E-11 1.291575909E+00
 -7.896940046E-11 1.313065529E+00
 -7.539240066E-11 1.334911942E+00
 -7.192960810E-11 1.357123494E+00
 -6.854573159E-11 1.379703879E+00
 -6.527187818E-11 1.402661681E+00
 -6.207886288E-11 1.426000476E+00
 -5.899176286E-11 1.449729681E+00
 -5.598673955E-11 1.473852873E+00
 -5.308374226E-11 1.498379350E+00
 -5.026344271E-11 1.523313046E+00
 -4.754133892E-11 1.548663616E+00
 -4.490197450E-11 1.574435115E+00
 -4.235705883E-11 1.600637674E+00
 -3.989439334E-11 1.627274990E+00
 -3.752249900E-11 1.654358149E+00
 -3.523177236E-11 1.681890965E+00
 -3.302827803E-11 1.709883928E+00
 -3.090438669E-11 1.738342047E+00
 -2.886415065E-11 1.767276049E+00
 -2.690154349E-11 1.796690464E+00
 -2.501906321E-11 1.826596737E+00
 -2.321176931E-11 1.856999874E+00
 -2.148108601E-11 1.887911558E+00
 -1.982279965E-11 1.919336319E+00
 -1.823759893E-11 1.951287031E+00
 -1.672161715E-11 1.983768225E+00
 -1.527522032E-11 2.016792774E+00
 -1.389455651E-11 2.050365925E+00
 -1.257995357E-11 2.084500551E+00
 -1.132734271E-11 2.119202375E+00
 -1.013724955E-11 2.154484510E+00
 -9.005195895E-12 2.190352678E+00
 -7.932078605E-12 2.226821184E+00
 -6.912858740E-12 2.263895512E+00
 -5.949000407E-12 2.301589727E+00
 -5.034765573E-12 2.339910507E+00
 -4.172284913E-12 2.378872156E+00
 -3.355084223E-12 2.418481350E+00
 -2.586012784E-12 2.458753347E+00
 -1.857838536E-12 2.499694347E+00
 -1.174165040E-12 2.541320086E+00
 -5.269997221E-13 2.583637953E+00
 7.929912288E-14 2.626663685E+00
 6.534314105E-13 2.670404434E+00
 1.190344698E-12 2.714876890E+00
 1.699385207E-12 2.760088682E+00
 2.174878333E-12 2.806056976E+00
 2.626579726E-12 2.852789164E+00
 3.048292521E-12 2.900303364E+00
 3.450736008E-12 2.948607445E+00
 3.827370712E-12 2.997719765E+00
 4.187149759E-12 3.047648430E+00
 4.523182610E-12 3.098412752E+00
 4.851656403E-12 3.150020838E+00
 5.166098885E-12 3.202492714E+00
 5.456961705E-12 3.255836725E+00
 5.716398275E-12 3.310073614E+00
 6.006885527E-12 3.365211964E+00
 6.325017333E-12 3.421273708E+00
 6.117041769E-12 3.478267193E+00
 5.339233829E-12 3.536214828E+00
 0.000000000E+00 3.595125675E+00
ZONE T="CFL3D, Slc: X=0.688"
 0.000000000E+00 0.000000000E+00
 0.000000000E+00 2.890825272E-06
 0.000000000E+00 5.811452866E-06
 0.000000000E+00 8.732080460E-06
 0.000000000E+00 1.165270805E-05
 0.000000000E+00 1.457333565E-05
 0.000000000E+00 1.752376556E-05
 2.375629037E-06 2.044439316E-05
 4.969755082E-06 2.339482307E-05
 8.677827282E-06 2.634525299E-05
 1.297030394E-05 2.929568291E-05
 1.775437158E-05 3.224611282E-05
 2.270932782E-05 3.522634506E-05
 2.757381662E-05 3.820657730E-05
 3.220661529E-05 4.118680954E-05
 3.642382217E-05 4.419684410E-05
 4.024226655E-05 4.720687866E-05
 4.328306386E-05 5.024671555E-05
 4.584183262E-05 5.328655243E-05
 4.742531019E-05 5.635619164E-05
 4.855807492E-05 5.942583084E-05
 4.864668881E-05 6.249547005E-05
 4.838622044E-05 6.562471390E-05
 4.706246182E-05 6.875395775E-05
 4.552478640E-05 7.188320160E-05
 4.292357335E-05 7.504224777E-05
 4.020376218E-05 7.823109627E-05
 3.644570825E-05 8.144974709E-05
 3.264690167E-05 8.466839790E-05
 2.793864951E-05 8.791685104E-05
 2.314019002E-05 9.119510651E-05
 1.755853555E-05 9.450316429E-05
 1.186819372E-05 9.784102440E-05
 5.477303603E-06 1.012086868E-04
 -9.752925507E-07 1.045763493E-04
 -7.960689800E-06 1.079738140E-04
 -1.515492295E-05 1.114308834E-04
 -2.272565871E-05 1.148879528E-04
 -3.054622721E-05 1.184046268E-04
 -3.876894334E-05 1.219511032E-04
 -4.710718349E-05 1.254975796E-04
 -5.585623876E-05 1.291036606E-04
 -6.478865544E-05 1.327395439E-04
 -7.408926467E-05 1.364350319E-04
 -8.357044862E-05 1.401603222E-04
 -9.321863763E-05 1.438856125E-04
 -1.032426371E-04 1.477003098E-04
 -1.133876431E-04 1.515150070E-04
 -1.238224067E-04 1.553893089E-04
 -1.344596531E-04 1.593232155E-04
 -1.454335143E-04 1.632869244E-04
 -1.564780105E-04 1.672804356E-04
 -1.678985718E-04 1.713335514E-04
 -1.794478449E-04 1.754462719E-04
 -1.913076121E-04 1.795887947E-04
 -2.032910561E-04 1.837909222E-04
 -2.155713591E-04 1.880228519E-04
 -2.279828914E-04 1.923143864E-04
 -2.407755383E-04 1.966655254E-04
 -2.536950342E-04 2.010762691E-04
 -2.669613168E-04 2.055466175E-04
 -2.802838280E-04 2.100467682E-04
 -2.940316335E-04 2.146363258E-04
 -3.078230948E-04 2.192556858E-04
 -3.219243081E-04 2.239346504E-04
 -3.362963325E-04 2.287030220E-04
 -3.509763046E-04 2.335309982E-04
 -3.657794150E-04 2.383887768E-04
 -3.809380287E-04 2.433359623E-04
 -3.962648916E-04 2.483427525E-04
 -4.118757497E-04 2.534389496E-04
 -4.277118132E-04 2.585649490E-04
 -4.438726173E-04 2.638101578E-04
 -4.602766130E-04 2.690851688E-04
 -4.768761573E-04 2.744495869E-04
 -4.939438077E-04 2.799034119E-04
 -5.110932398E-04 2.854168415E-04
 -5.286798696E-04 2.910196781E-04
 -5.463562557E-04 2.966821194E-04
 -5.644757766E-04 3.024339676E-04
 -5.827660789E-04 3.082752228E-04
 -6.014780374E-04 3.142058849E-04
 -6.202755030E-04 3.201961517E-04
 -6.395953242E-04 3.263056278E-04
 -6.590120611E-04 3.324747086E-04
 -6.789561594E-04 3.387629986E-04
 -6.989762769E-04 3.451108932E-04
 -7.195123471E-04 3.515779972E-04
 -7.402329938E-04 3.581345081E-04
 -7.614520728E-04 3.648102283E-04
 -7.827365771E-04 3.715455532E-04
 -8.044597926E-04 3.784000874E-04
 -8.265983779E-04 3.853738308E-04
 -8.490362670E-04 3.924369812E-04
 -8.718749159E-04 3.996193409E-04
 -8.949488983E-04 4.068911076E-04
 -9.184562368E-04 4.142820835E-04
 -9.422482690E-04 4.217922688E-04
 -9.665918769E-04 4.294216633E-04
 -9.910870576E-04 4.371404648E-04
 -1.016224385E-03 4.450082779E-04
 -1.041578711E-03 4.529953003E-04
 -1.067430829E-03 4.611015320E-04
 -1.093444531E-03 4.692971706E-04
 -1.120137051E-03 4.776418209E-04
 -1.147137373E-03 4.861354828E-04
 -1.174658653E-03 4.947483540E-04
 -1.202485873E-03 5.035102367E-04
 -1.230842085E-03 5.123913288E-04
 -1.259526238E-03 5.214214325E-04
 -1.288859872E-03 5.306005478E-04
 -1.318543451E-03 5.399286747E-04
 -1.348897466E-03 5.494058132E-04
 -1.379415160E-03 5.590021610E-04
 -1.410650671E-03 5.687773228E-04
 -1.442202018E-03 5.787014961E-04
 -1.474396791E-03 5.887746811E-04
 -1.507020206E-03 5.990266800E-04
 -1.540293684E-03 6.094276905E-04
 -1.573912334E-03 6.200075150E-04
 -1.608132152E-03 6.307363510E-04
 -1.642905176E-03 6.416738033E-04
 -1.678241766E-03 6.527602673E-04
 -1.714064390E-03 6.640255451E-04
 -1.750500407E-03 6.754696369E-04
 -1.787462272E-03 6.870925426E-04
 -1.825083396E-03 6.989240646E-04
 -1.863217447E-03 7.109344006E-04
 -1.901869313E-03 7.231235504E-04
 -1.941340626E-03 7.355511189E-04
 -1.981184585E-03 7.481276989E-04
 -2.021849388E-03 7.609426975E-04
 -2.063029446E-03 7.739663124E-04
 -2.105011372E-03 7.871985435E-04
 -2.147448249E-03 8.006393909E-04
 -2.190633677E-03 8.142888546E-04
 -2.234377898E-03 8.281767368E-04
 -2.278988715E-03 8.422732353E-04
 -2.324107103E-03 8.566081524E-04
 -2.370060189E-03 8.711814880E-04
 -2.416546689E-03 8.859932423E-04
 -2.463936107E-03 9.010434151E-04
 -2.511840779E-03 9.163320065E-04
 -2.560746856E-03 9.318888187E-04
 -2.610126277E-03 9.476840496E-04
 -2.660440747E-03 9.637475014E-04
 -2.711333800E-03 9.800791740E-04
 -2.763183555E-03 9.966790676E-04
 -2.815518761E-03 1.013517380E-03
 -2.869028365E-03 1.030683517E-03
 -2.922946122E-03 1.048088074E-03
 -2.977864351E-03 1.065790653E-03
 -3.033412853E-03 1.083791256E-03
 -3.090000711E-03 1.102089882E-03
 -3.147173207E-03 1.120686531E-03
 -3.205362475E-03 1.139581203E-03
 -3.264210420E-03 1.158803701E-03
 -3.324069083E-03 1.178324223E-03
 -3.384539159E-03 1.198172569E-03
 -3.446094459E-03 1.218348742E-03
 -3.508201102E-03 1.238852739E-03
 -3.571447451E-03 1.259714365E-03
 -3.635260044E-03 1.280903816E-03
 -3.700216301E-03 1.302450895E-03
 -3.765644273E-03 1.324325800E-03
 -3.832267597E-03 1.346588135E-03
 -3.899418283E-03 1.369208097E-03
 -3.967748955E-03 1.392215490E-03
 -4.036655184E-03 1.415610313E-03
 -4.106637556E-03 1.439362764E-03
 -4.177171737E-03 1.463532448E-03
 -4.248822574E-03 1.488089561E-03
 -4.320993088E-03 1.513063908E-03
 -4.394266754E-03 1.538425684E-03
 -4.468000028E-03 1.564234495E-03
 -4.542870913E-03 1.590460539E-03
 -4.618075676E-03 1.617103815E-03
 -4.694470670E-03 1.644194126E-03
 -4.771226086E-03 1.671761274E-03
 -4.849124700E-03 1.699775457E-03
 -4.927168600E-03 1.728236675E-03
 -5.006396677E-03 1.757174730E-03
 -5.085695069E-03 1.786589622E-03
 -5.166224204E-03 1.816511154E-03
 -5.246717483E-03 1.846939325E-03
 -5.328333937E-03 1.877844334E-03
 -5.409671459E-03 1.909255981E-03
 -5.492264871E-03 1.941204071E-03
 -5.574455485E-03 1.973688602E-03
 -5.657892674E-03 2.006709576E-03
 -5.740535911E-03 2.040266991E-03
 -5.824495573E-03 2.074390650E-03
 -5.907398183E-03 2.109080553E-03
 -5.991610233E-03 2.144336700E-03
 -6.074504927E-03 2.180188894E-03
 -6.158737000E-03 2.216637135E-03
 -6.241238210E-03 2.253681421E-03
 -6.325075869E-03 2.291351557E-03
 -6.406839471E-03 2.329647541E-03
 -6.489867810E-03 2.368569374E-03
 -6.570381578E-03 2.408146858E-03
 -6.652152631E-03 2.448379993E-03
 -6.730990019E-03 2.489298582E-03
 -6.811002269E-03 2.530872822E-03
 -6.887497380E-03 2.573162317E-03
 -6.965146866E-03 2.616137266E-03
 -7.038643584E-03 2.659827471E-03
 -7.113310974E-03 2.704262733E-03
 -7.183107547E-03 2.749413252E-03
 -7.254026365E-03 2.795338631E-03
 -7.319315337E-03 2.842009068E-03
 -7.385629695E-03 2.889454365E-03
 -7.445535623E-03 2.937704325E-03
 -7.506397087E-03 2.986758947E-03
 -7.559888996E-03 3.036618233E-03
 -7.614263799E-03 3.087311983E-03
 -7.660314441E-03 3.138870001E-03
 -7.707125042E-03 3.191262484E-03
 -7.744501811E-03 3.244519234E-03
 -7.782567292E-03 3.298670053E-03
 -7.810069248E-03 3.353714943E-03
 -7.838129997E-03 3.409683704E-03
 -7.854402997E-03 3.466606140E-03
 -7.871060632E-03 3.524452448E-03
 -7.874719799E-03 3.583282232E-03
 -7.878500968E-03 3.643095493E-03
 -7.868134417E-03 3.703892231E-03
 -7.857552730E-03 3.765672445E-03
 -7.831668481E-03 3.828525543E-03
 -7.805181202E-03 3.892421722E-03
 -7.762316614E-03 3.957360983E-03
 -7.718421519E-03 4.023402929E-03
 -7.657099981E-03 4.090547562E-03
 -7.594328839E-03 4.158794880E-03
 -7.513245102E-03 4.228174686E-03
 -7.430231664E-03 4.298716784E-03
 -7.328194100E-03 4.370450974E-03
 -7.223761175E-03 4.443377256E-03