TITLE     = "u'v'/Uref^2 profiles CFL3D M=0.875, Wilcox2006 model"
VARIABLES = "uv","z-z0"
ZONE T="CFL3D, Slc: X=-0.25"
 0.000000000E+00 0.000000000E+00
 0.000000000E+00 3.218650818E-06
 0.000000000E+00 6.467103958E-06
 0.000000000E+00 9.685754776E-06
 0.000000000E+00 1.293420792E-05
 -5.640873879E-11 1.615285873E-05
 -6.454751733E-10 1.940131187E-05
 -2.154256107E-09 2.264976501E-05
 -1.284512319E-08 2.589821815E-05
 -3.009000693E-08 2.917647362E-05
 -1.014518176E-07 3.245472908E-05
 -1.980917546E-07 3.573298454E-05
 -4.759586716E-07 3.901124001E-05
 -8.273042340E-07 4.231929779E-05
 -1.626568633E-06 4.562735558E-05
 -2.604584097E-06 4.896521568E-05
 -4.448795153E-06 5.230307579E-05
 -6.619902706E-06 5.564093590E-05
 -1.025199617E-05 5.900859833E-05
 -1.447756586E-05 6.240606308E-05
 -2.079397746E-05 6.580352783E-05
 -2.800266157E-05 6.923079491E-05
 -3.786544403E-05 7.268786430E-05
 -4.883264774E-05 7.614493370E-05
 -6.265410047E-05 7.963180542E-05
 -7.766419003E-05 8.311867714E-05
 -9.530274838E-05 8.663535118E-05
 -1.143321279E-04 9.021162987E-05
 -1.353167900E-04 9.378790855E-05
 -1.570345776E-04 9.736418724E-05
 -1.803796331E-04 1.010000706E-04
 -2.042120177E-04 1.046657562E-04
 -2.286986564E-04 1.083314419E-04
 -2.531774226E-04 1.120567322E-04
 -2.776741167E-04 1.157820225E-04
 -3.017884155E-04 1.195669174E-04
 -3.257111239E-04 1.233518124E-04
 -3.487656941E-04 1.271963120E-04
 -3.716710198E-04 1.310706139E-04
 -3.932256368E-04 1.349747181E-04
 -4.146233841E-04 1.389086246E-04
 -4.345969937E-04 1.429021358E-04
 -4.544469994E-04 1.469254494E-04
 -4.726414336E-04 1.509785652E-04
 -4.909419222E-04 1.550912857E-04
 -5.075449590E-04 1.592338085E-04
 -5.241525942E-04 1.634061337E-04
 -5.393517204E-04 1.676380634E-04
 -5.545642343E-04 1.719295979E-04
 -5.684609059E-04 1.762509346E-04
 -5.821739323E-04 1.806020737E-04
 -5.948925391E-04 1.850128174E-04
 -6.074322155E-04 1.894831657E-04
 -6.191273569E-04 1.940131187E-04
 -6.305145216E-04 1.985728741E-04
 -6.413266528E-04 2.032220364E-04
 -6.517783040E-04 2.079010010E-04
 -6.616720930E-04 2.126097679E-04
 -6.712689064E-04 2.174079418E-04
 -6.804317818E-04 2.222657204E-04
 -6.892570527E-04 2.271831036E-04
 -6.977947778E-04 2.321600914E-04
 -7.059272029E-04 2.371966839E-04
 -7.138316287E-04 2.422928810E-04
 -7.213445497E-04 2.474486828E-04
 -7.287494373E-04 2.526938915E-04
 -7.357040304E-04 2.579689026E-04
 -7.426400553E-04 2.633631229E-04
 -7.491302676E-04 2.687871456E-04
 -7.556102937E-04 2.743005753E-04
 -7.616867078E-04 2.798736095E-04
 -7.678240654E-04 2.855658531E-04
 -7.735157269E-04 2.912878990E-04
 -7.792641991E-04 2.970993519E-04
 -7.846438093E-04 3.030002117E-04
 -7.900717901E-04 3.089904785E-04
 -7.951793377E-04 3.150701523E-04
 -8.002856048E-04 3.212094307E-04
 -8.051237091E-04 3.274381161E-04
 -8.099663537E-04 3.337562084E-04
 -8.145815227E-04 3.401637077E-04
 -8.191994857E-04 3.466904163E-04
 -8.235929417E-04 3.532767296E-04
 -8.279613103E-04 3.599524498E-04
 -8.321920759E-04 3.667473793E-04
 -8.363730740E-04 3.736317158E-04
 -8.404280525E-04 3.806352615E-04
 -8.444119012E-04 3.876984119E-04
 -8.483153651E-04 3.949105740E-04
 -8.521526470E-04 4.022121429E-04
 -8.558949339E-04 4.096031189E-04
 -8.595812251E-04 4.171133041E-04
 -8.632054087E-04 4.247426987E-04
 -8.667638176E-04 4.324913025E-04
 -8.702729247E-04 4.403591156E-04
 -8.737074677E-04 4.483461380E-04
 -8.770923596E-04 4.564225674E-04
 -8.804140962E-04 4.646480083E-04
 -8.837093483E-04 4.729926586E-04
 -8.869270678E-04 4.814565182E-04
 -8.901422261E-04 4.900693893E-04
 -8.932690835E-04 4.988014698E-04
 -8.964056615E-04 5.076825619E-04
 -8.994404343E-04 5.166828632E-04
 -9.024951723E-04 5.258321762E-04
 -9.054493275E-04 5.351006985E-04
 -9.084434714E-04 5.445480347E-04
 -9.113280103E-04 5.541145802E-04
 -9.142588242E-04 5.638599396E-04
 -9.170825942E-04 5.737245083E-04
 -9.199518827E-04 5.837678909E-04
 -9.227194823E-04 5.939602852E-04
 -9.255223558E-04 6.043016911E-04
 -9.282458341E-04 6.148219109E-04
 -9.310011519E-04 6.254911423E-04
 -9.336651419E-04 6.363093853E-04
 -9.363751160E-04 6.473362446E-04
 -9.390021442E-04 6.585121155E-04
 -9.416724206E-04 6.698966026E-04
 -9.442585870E-04 6.814301014E-04
 -9.468789794E-04 6.931424141E-04
 -9.494358674E-04 7.050633430E-04
 -9.520216845E-04 7.171630859E-04
 -9.545453941E-04 7.294714451E-04
 -9.570957627E-04 7.419586182E-04
 -9.595919983E-04 7.546544075E-04
 -9.621140780E-04 7.675588131E-04
 -9.645820828E-04 7.806718349E-04
 -9.670688305E-04 7.939636707E-04
 -9.695135523E-04 8.074939251E-04
 -9.719778318E-04 8.212327957E-04
 -9.743958944E-04 8.351802826E-04
 -9.768347954E-04 8.493661880E-04
 -9.792330675E-04 8.637905121E-04
 -9.816461243E-04 8.784234524E-04
 -9.840237908E-04 8.932948112E-04
 -9.864213644E-04 9.084343910E-04
 -9.887797059E-04 9.237825871E-04
 -9.911553934E-04 9.393990040E-04
 -9.934981354E-04 9.552538395E-04
 -9.958553128E-04 9.713768959E-04
 -9.981853655E-04 9.877681732E-04
 -1.000525779E-03 1.004427671E-03
 -1.002839766E-03 1.021355391E-03
 -1.005163067E-03 1.038551331E-03
 -1.007461920E-03 1.056015491E-03
 -1.009770203E-03 1.073777676E-03
 -1.012054621E-03 1.091808081E-03
 -1.014349982E-03 1.110166311E-03
 -1.016622526E-03 1.128792763E-03
 -1.018899959E-03 1.147717237E-03
 -1.021162490E-03 1.166969538E-03
 -1.023426652E-03 1.186519861E-03
 -1.025676378E-03 1.206398010E-03
 -1.027928432E-03 1.226603985E-03
 -1.030168496E-03 1.247137785E-03
 -1.032404369E-03 1.267999411E-03
 -1.034634653E-03 1.289218664E-03
 -1.036858885E-03 1.310795546E-03
 -1.039077993E-03 1.332700253E-03
 -1.041285810E-03 1.354962587E-03
 -1.043495024E-03 1.377582550E-03
 -1.045688405E-03 1.400589943E-03
 -1.047886093E-03 1.423954964E-03
 -1.050063060E-03 1.447707415E-03
 -1.052253065E-03 1.471877098E-03
 -1.054413500E-03 1.496404409E-03
 -1.056592329E-03 1.521378756E-03
 -1.058739377E-03 1.546740532E-03
 -1.060902607E-03 1.572489738E-03
 -1.063033473E-03 1.598685980E-03
 -1.065185643E-03 1.625299454E-03
 -1.067299512E-03 1.652359962E-03
 -1.069439808E-03 1.679867506E-03
 -1.071535051E-03 1.707822084E-03
 -1.073659165E-03 1.736223698E-03
 -1.075737062E-03 1.765102148E-03
 -1.077847555E-03 1.794457436E-03
 -1.079907874E-03 1.824319363E-03
 -1.081999042E-03 1.854628325E-03
 -1.084040268E-03 1.885473728E-03
 -1.086113974E-03 1.916795969E-03
 -1.088132034E-03 1.948624849E-03
 -1.090186066E-03 1.980990171E-03
 -1.092185616E-03 2.013921738E-03
 -1.094218693E-03 2.047359943E-03
 -1.096194610E-03 2.081364393E-03
 -1.098205452E-03 2.115905285E-03
 -1.100157970E-03 2.151042223E-03
 -1.102146343E-03 2.186745405E-03
 -1.104070921E-03 2.223014832E-03
 -1.106033917E-03 2.259910107E-03
 -1.107932185E-03 2.297401428E-03
 -1.109868172E-03 2.335518599E-03
 -1.111738966E-03 2.374291420E-03
 -1.113645383E-03 2.413660288E-03
 -1.115484163E-03 2.453684807E-03
 -1.117360429E-03 2.494364977E-03
 -1.119166263E-03 2.535700798E-03
 -1.121011097E-03 2.577751875E-03
 -1.122783870E-03 2.620488405E-03
 -1.124594593E-03 2.663940191E-03
 -1.126330928E-03 2.708107233E-03
 -1.128103118E-03 2.752959728E-03
 -1.129800570E-03 2.798587084E-03
 -1.131534926E-03 2.844959497E-03
 -1.133192331E-03 2.892106771E-03
 -1.134886290E-03 2.940028906E-03
 -1.136500854E-03 2.988755703E-03
 -1.138150808E-03 3.038257360E-03
 -1.139719971E-03 3.088593483E-03
 -1.141324174E-03 3.139734268E-03
 -1.142845373E-03 3.191739321E-03
 -1.144402777E-03 3.244638443E-03
 -1.145873684E-03 3.298372030E-03
 -1.147378585E-03 3.352969885E-03
 -1.148796640E-03 3.408491611E-03
 -1.150248339E-03 3.464937210E-03
 -1.151611679E-03 3.522336483E-03
 -1.153006102E-03 3.580659628E-03
 -1.154311583E-03 3.639936447E-03
 -1.155646401E-03 3.700196743E-03
 -1.156891463E-03 3.761470318E-03
 -1.158163766E-03 3.823757172E-03
 -1.159345033E-03 3.887057304E-03
 -1.160551212E-03 3.951400518E-03
 -1.161665423E-03 4.016786814E-03
 -1.162802801E-03 4.083275795E-03
 -1.163848210E-03 4.150897264E-03
 -1.164913410E-03 4.219591618E-03
 -1.165885595E-03 4.289448261E-03
 -1.166875591E-03 4.360437393E-03
 -1.167770941E-03 4.432588816E-03
 -1.168682473E-03 4.505962133E-03
 -1.169498544E-03 4.580557346E-03
 -1.170327771E-03 4.656344652E-03
 -1.171060838E-03 4.733443260E-03
 -1.171804382E-03 4.811763763E-03
 -1.172450371E-03 4.891395569E-03
 -1.173104742E-03 4.972338676E-03
 -1.173660159E-03 5.054622889E-03
 -1.174221514E-03 5.138278008E-03
 -1.174682635E-03 5.223304033E-03
 -1.175147016E-03 5.309730768E-03
 -1.175510115E-03 5.397617817E-03
 -1.175873796E-03 5.486935377E-03
 -1.176134567E-03 5.577743053E-03
 -1.176393474E-03 5.670011044E-03
 -1.176548190E-03 5.763858557E-03
 -1.176698366E-03 5.859255791E-03
 -1.176742720E-03 5.956202745E-03
 -1.176779857E-03 6.054759026E-03
 -1.176709775E-03 6.154954433E-03
 -1.176629565E-03 6.256788969E-03
 -1.176440623E-03 6.360322237E-03
 -1.176238642E-03 6.465584040E-03
 -1.175926416E-03 6.572574377E-03
 -1.175598358E-03 6.681323051E-03
 -1.175158308E-03 6.791889668E-03
 -1.174699515E-03 6.904274225E-03
 -1.174126752E-03 7.018506527E-03
 -1.173532452E-03 7.134646177E-03
 -1.172822434E-03 7.252722979E-03
 -1.172087854E-03 7.372707129E-03
 -1.171235344E-03 7.494747639E-03
 -1.170355594E-03 7.618725300E-03
 -1.169355819E-03 7.744818926E-03
 -1.168325311E-03 7.872968912E-03
 -1.167173497E-03 8.003234863E-03
 -1.165986876E-03 8.135706186E-03
 -1.164676971E-03 8.270323277E-03
 -1.163329580E-03 8.407175541E-03
 -1.161856111E-03 8.546292782E-03
 -1.160342013E-03 8.687704802E-03
 -1.158698928E-03 8.831501007E-03
 -1.157012419E-03 8.977621794E-03
 -1.155194710E-03 9.126186371E-03
 -1.153329154E-03 9.277224541E-03
 -1.151330187E-03 9.430736303E-03
 -1.149279648E-03 9.586811066E-03
 -1.147093019E-03 9.745448828E-03
 -1.144851209E-03 9.906738997E-03
 -1.142470283E-03 1.007068157E-02
 -1.140030567E-03 1.023733616E-02
 -1.137448242E-03 1.040676236E-02
 -1.134803286E-03 1.057898998E-02
 -1.132012578E-03 1.075407863E-02
 -1.129155280E-03 1.093205810E-02
 -1.126148854E-03 1.111298800E-02
 -1.123071765E-03 1.129689813E-02
 -1.119841356E-03 1.148387790E-02
 -1.116536092E-03 1.167392731E-02
 -1.113073435E-03 1.186716557E-02
 -1.109531731E-03 1.206356287E-02
 -1.105828676E-03 1.226323843E-02
 -1.102041686E-03 1.246619225E-02
 -1.098089037E-03 1.267254353E-02
 -1.094047446E-03 1.288229227E-02
 -1.089836005E-03 1.309552789E-02
 -1.085530268E-03 1.331228018E-02
 -1.081049442E-03 1.353263855E-02
 -1.076469081E-03 1.375663280E-02
 -1.071708859E-03 1.398435235E-02
 -1.066843513E-03 1.421582699E-02
 -1.061792718E-03 1.445114613E-02
 -1.056630514E-03 1.469036937E-02
 -1.051277621E-03 1.493355632E-02
 -1.045807730E-03 1.518073678E-02
 -1.040139701E-03 1.543205976E-02
 -1.034347806E-03 1.568752527E-02
 -1.028352650E-03 1.594722271E-02
 -1.022225828E-03 1.621124148E-02
 -1.015889226E-03 1.647961140E-02
 -1.009414322E-03 1.675242186E-02
 -1.002721372E-03 1.702979207E-02
 -9.958826704E-04 1.731172204E-02
 -9.888185887E-04 1.759833097E-02
 -9.815990925E-04 1.788970828E-02
 -9.741468239E-04 1.818591356E-02
 -9.665316902E-04 1.848697662E-02
 -9.586743545E-04 1.879307628E-02
 -9.506430360E-04 1.910424232E-02
 -9.423615411E-04 1.942056417E-02
 -9.338952368E-04 1.974213123E-02
 -9.251693264E-04 2.006903291E-02
 -9.162475471E-04 2.040132880E-02
 -9.070562082E-04 2.073913813E-02
 -8.976546815E-04 2.108255029E-02
 -8.879725938E-04 2.143165469E-02
 -8.780648350E-04 2.178657055E-02
 -8.678661543E-04 2.214732766E-02
 -8.574239910E-04 2.251410484E-02
 -8.466778672E-04 2.288693190E-02
 -8.356688195E-04 2.326592803E-02
 -8.243393386E-04 2.365124226E-02
 -8.127206820E-04 2.404293418E-02
 -8.007657598E-04 2.444112301E-02
 -7.884890074E-04 2.484586835E-02
 -7.758546853E-04 2.525737882E-02
 -7.628521416E-04 2.567568421E-02
 -7.494692691E-04 2.610093355E-02
 -7.356696296E-04 2.653321624E-02
 -7.214403013E-04 2.697271109E-02
 -7.070204592E-04 2.741944790E-02
 -6.924835616E-04 2.787363529E-02
 -6.772608031E-04 2.833530307E-02
 -6.614933372E-04 2.880465984E-02
 -6.451494410E-04 2.928176522E-02
 -6.283175899E-04 2.976682782E-02
 -6.113261334E-04 3.025987744E-02
 -5.941553391E-04 3.076115251E-02
 -5.767903640E-04 3.127071261E-02
 -5.592080997E-04 3.178873658E-02
 -5.413833424E-04 3.231534362E-02
 -5.232786061E-04 3.285068274E-02
 -5.048803287E-04 3.339490294E-02
 -4.861324560E-04 3.394815326E-02
 -4.670550989E-04 3.451055288E-02
 -4.475761962E-04 3.508234024E-02
 -4.277607077E-04 3.566354513E-02
 -4.075361940E-04 3.625443578E-02
 -3.870042856E-04 3.685510159E-02
 -3.661134397E-04 3.746575117E-02
 -3.449886281E-04 3.808647394E-02
 -3.236135817E-04 3.871756792E-02
 -3.021165030E-04 3.935906291E-02
 -2.805372060E-04 4.001125693E-02
 -2.589773212E-04 4.067423940E-02
 -2.375491749E-04 4.134821892E-02
 -2.163055033E-04 4.203337431E-02
 -1.954363834E-04 4.272991419E-02
 -1.749358053E-04 4.343798757E-02
 -1.550748857E-04 4.415783286E-02
 -1.357765286E-04 4.488956928E-02
 -1.173931305E-04 4.563349485E-02
 -9.977089940E-05 4.638975859E-02
 -8.334501035E-05 4.715856910E-02
 -6.789374311E-05 4.794010520E-02
 -5.393140964E-05 4.873463511E-02
 -4.119723235E-05 4.954230785E-02
 -3.029889922E-05 5.036345124E-02
 -2.090483758E-05 5.119815469E-02
 -1.372532552E-05 5.204674602E-02
 -7.966158591E-06 5.290940404E-02
 -4.312006695E-06 5.378639698E-02
 -1.796229640E-06 5.467790365E-02
 -9.506953802E-07 5.558425188E-02
 -3.420117878E-07 5.650559068E-02
 -1.950741932E-07 5.744224787E-02
 -8.151376818E-08 5.839440227E-02
 -4.756961758E-08 5.936244130E-02
 -2.083512385E-08 6.034645438E-02
 -1.215332990E-08 6.134688854E-02
 -5.304657158E-09 6.236386299E-02
 -3.254462033E-09 6.339776516E-02
 -1.622192269E-09 6.444877386E-02
 -1.174559561E-09 6.551724672E-02
 -8.143836716E-10 6.660345197E-02
 -7.242927369E-10 6.770771742E-02
 -6.513484196E-10 6.883025169E-02
 -6.362639859E-10 6.997147202E-02
 -6.243452977E-10 7.113158703E-02
 -6.241400174E-10 7.231101394E-02
 -6.244918471E-10 7.350996137E-02
 -6.270823305E-10 7.472887635E-02
 -6.297672384E-10 7.596796751E-02
 -6.328465529E-10 7.722765207E-02
 -6.359374694E-10 7.850822806E-02
 -6.390822316E-10 7.981011271E-02
 -6.422185006E-10 8.113354445E-02
 -6.453498291E-10 8.247900009E-02
 -6.484617843E-10 8.384674788E-02
 -6.515604722E-10 8.523726463E-02
 -6.546296838E-10 8.665078878E-02
 -6.576861833E-10 8.808785677E-02
 -6.607027703E-10 8.954870701E-02
 -6.637089212E-10 9.103390574E-02
 -6.666640573E-10 9.254369140E-02
 -6.696115329E-10 9.407857060E-02
 -6.724962254E-10 9.563890100E-02
 -6.753763104E-10 9.722524881E-02
 -6.781812889E-10 9.883782268E-02
 -6.809849351E-10 1.004772484E-01
 -6.837007072E-10 1.021438241E-01
 -6.864188107E-10 1.038381457E-01
 -6.890355508E-10 1.055605412E-01
 -6.916583417E-10 1.073116064E-01
 -6.941660580E-10 1.090916991E-01
 -6.966839328E-10 1.109014153E-01
 -6.990724666E-10 1.127411127E-01
 -7.014753778E-10 1.146114469E-01
 -7.037342376E-10 1.165127158E-01
 -7.060119156E-10 1.184456944E-01
 -7.081307762E-10 1.204106808E-01
 -7.102730071E-10 1.224084198E-01
 -7.122413215E-10 1.244392097E-01
 -7.142376135E-10 1.265038252E-01
 -7.160447235E-10 1.286026835E-01
 -7.178846961E-10 1.307364702E-01
 -7.195201657E-10 1.329056025E-01
 -7.211935493E-10 1.351108551E-01
 -7.226468868E-10 1.373526454E-01
 -7.241430788E-10 1.396318078E-01
 -7.254039591E-10 1.419487000E-01
 -7.267128566E-10 1.443042159E-01
 -7.277712322E-10 1.466987729E-01
 -7.288826209E-10 1.491332054E-01
 -7.297284998E-10 1.516079307E-01
 -7.306327210E-10 1.541239023E-01
 -7.312564998E-10 1.566815376E-01
 -7.319439499E-10 1.592818499E-01
 -7.323364692E-10 1.619251370E-01
 -7.327978779E-10 1.646125913E-01
 -7.329503671E-10 1.673445106E-01
 -7.331769081E-10 1.701219678E-01
 -7.330809848E-10 1.729454398E-01
 -7.330645535E-10 1.758159995E-01
 -7.327123908E-10 1.787340641E-01
 -7.324449380E-10 1.817008257E-01
 -7.318293749E-10 1.847166419E-01
 -7.313037953E-10 1.877827644E-01
 -7.304182259E-10 1.908997297E-01
 -7.296278581E-10 1.940686107E-01
 -7.284663428E-10 1.972900629E-01
 -7.274053582E-10 2.005650997E-01
 -7.259628454E-10 2.038944960E-01
 -7.246260258E-10 2.072793841E-01
 -7.228982413E-10 2.107203007E-01
 -7.212812569E-10 2.142186761E-01
 -7.192645368E-10 2.177749276E-01
 -7.173637795E-10 2.213904858E-01
 -7.150554593E-10 2.250660062E-01
 -7.128682644E-10 2.288027406E-01
 -7.102666233E-10 2.326014638E-01
 -7.077913255E-10 2.364635468E-01
 -7.048957529E-10 2.403895259E-01
 -7.021313531E-10 2.443810701E-01
 -6.989417933E-10 2.484387159E-01
 -6.958886245E-10 2.525640130E-01
 -6.924062990E-10 2.567577362E-01
 -6.890654158E-10 2.610213161E-01
 -6.852926004E-10 2.653556466E-01
 -6.816661680E-10 2.697621584E-01
 -6.776059713E-10 2.742418051E-01
 -6.736971536E-10 2.787960768E-01
 -6.693539056E-10 2.834258676E-01
 -6.651669215E-10 2.881329060E-01
 -6.605460068E-10 2.929179072E-01
 -6.560860188E-10 2.977827787E-01
 -6.511935990E-10 3.027282357E-01
 -6.464670466E-10 3.077562451E-01
 -6.413105602E-10 3.128675222E-01
 -6.363247151E-10 3.180640936E-01
 -6.309124889E-10 3.233468533E-01
 -6.256755114E-10 3.287177086E-01
 -6.200170377E-10 3.341775537E-01
 -6.145383091E-10 3.397285342E-01
 -6.086436910E-10 3.453715444E-01
 -6.029334809E-10 3.511086106E-01
 -5.968140426E-10 3.569408655E-01
 -5.908834533E-10 3.628703952E-01
 -5.845512963E-10 3.688982725E-01
 -5.784122070E-10 3.750267029E-01
 -5.718803764E-10 3.812567592E-01
 -5.655457214E-10 3.875907063E-01
 -5.588278729E-10 3.940297365E-01
 -5.523111413E-10 4.005761743E-01
 -5.454217078E-10 4.072311521E-01
 -5.387371660E-10 4.139972329E-01
 -5.316912466E-10 4.208754301E-01
 -5.248537160E-10 4.278684855E-01
 -5.176669648E-10 4.349774122E-01
 -5.106919332E-10 4.422050714E-01
 -5.033803929E-10 4.495525360E-01
 -4.962839029E-10 4.570226073E-01
 -4.888640603E-10 4.646165967E-01
 -4.816621546E-10 4.723373055E-01
 -4.741509407E-10 4.801860452E-01
 -4.668602727E-10 4.881657958E-01
 -4.592747016E-10 4.962779284E-01
 -4.519120633E-10 5.045254230E-01
 -4.442694823E-10 5.129096508E-01
 -4.368516104E-10 5.214339495E-01
 -4.291691447E-10 5.300995708E-01
 -4.217131644E-10 5.389098525E-01
 -4.140080501E-10 5.478662252E-01
 -4.065306980E-10 5.569721460E-01
 -3.988199493E-10 5.662291050E-01
 -3.913379065E-10 5.756406188E-01
 -3.836383433E-10 5.852082372E-01
 -3.761680412E-10 5.949355960E-01
 -3.684962058E-10 6.048242450E-01
 -3.610537980E-10 6.148780584E-01
 -3.534256499E-10 6.250987053E-01
 -3.460267906E-10 6.354899406E-01
 -3.384580394E-10 6.460535526E-01
 -3.311179386E-10 6.567935944E-01
 -3.236236279E-10 6.677117348E-01
 -3.163569129E-10 6.788122654E-01
 -3.089513922E-10 6.900969744E-01
 -3.017722183E-10 7.015700340E-01
 -2.944692545E-10 7.132335901E-01
 -2.873908889E-10 7.250918150E-01
 -2.802036103E-10 7.371467352E-01
 -2.732387372E-10 7.494029999E-01
 -2.661792176E-10 7.618627548E-01
 -2.593396331E-10 7.745305300E-01
 -2.524194465E-10 7.874084711E-01
 -2.457161974E-10 8.005017042E-01
 -2.389466680E-10 8.138118982E-01
 -2.323894965E-10 8.273445368E-01
 -2.257805193E-10 8.411017656E-01
 -2.193783627E-10 8.550888300E-01
 -2.129387361E-10 8.693079948E-01
 -2.073631683E-10 8.822281361E-01
 -2.067004207E-10 8.837646246E-01
 -2.004380550E-10 8.984612226E-01
 -1.943704225E-10 9.134032726E-01
 -1.882932560E-10 9.285932779E-01
 -1.824033424E-10 9.440371990E-01
 -1.765173979E-10 9.597373009E-01
 -1.708115593E-10 9.756997824E-01
 -1.651219994E-10 9.919271469E-01
 -1.596056204E-10 1.008425713E+00
 -1.541167610E-10 1.025197983E+00
 -1.487944767E-10 1.042250633E+00
 -1.435098707E-10 1.059586167E+00
 -1.383854420E-10 1.077211618E+00
 -1.333078231E-10 1.095129371E+00
 -1.283842893E-10 1.113346815E+00
 -1.235156144E-10 1.131866455E+00
 -1.187952792E-10 1.150695682E+00
 -1.141368597E-10 1.169837356E+00
 -1.096211732E-10 1.189299107E+00
 -1.051735643E-10 1.209083796E+00
 -1.008633246E-10 1.229199290E+00
 -9.662644296E-11 1.249648571E+00
 -9.252183741E-11 1.270439625E+00
 -8.849492666E-11 1.291575909E+00
 -8.459533074E-11 1.313065529E+00
 -8.077701702E-11 1.334911942E+00
 -7.708129968E-11 1.357123494E+00
 -7.346964009E-11 1.379703879E+00
 -6.997599722E-11 1.402661681E+00
 -6.656847990E-11 1.426000476E+00
 -6.327451757E-11 1.449729681E+00
 -6.006798531E-11 1.473852873E+00
 -5.697075450E-11 1.498379350E+00
 -5.396162683E-11 1.523313046E+00
 -5.105763035E-11 1.548663616E+00
 -4.824175087E-11 1.574435115E+00
 -4.552692251E-11 1.600637674E+00
 -4.289966993E-11 1.627274990E+00
 -4.036945431E-11 1.654358149E+00
 -3.792564179E-11 1.681890965E+00
 -3.557501516E-11 1.709883928E+00
 -3.330909160E-11 1.738342047E+00
 -3.113246813E-11 1.767276049E+00
 -2.903841750E-11 1.796690464E+00
 -2.702983670E-11 1.826596737E+00
 -2.510119196E-11 1.856999874E+00
 -2.325420065E-11 1.887911558E+00
 -2.148414953E-11 1.919336319E+00
 -1.979194239E-11 1.951287031E+00
 -1.817326845E-11 1.983768225E+00
 -1.662866025E-11 2.016792774E+00
 -1.515385734E-11 2.050365925E+00
 -1.374932286E-11 2.084500551E+00
 -1.241059772E-11 2.119202375E+00
 -1.113833158E-11 2.154484510E+00
 -9.927664593E-12 2.190352678E+00
 -8.779616791E-12 2.226821184E+00
 -7.688765423E-12 2.263895512E+00
 -6.656713375E-12 2.301589727E+00
 -5.677324496E-12 2.339910507E+00
 -4.752886452E-12 2.378872156E+00
 -3.876509790E-12 2.418481350E+00
 -3.051224854E-12 2.458753347E+00
 -2.269367637E-12 2.499694347E+00
 -1.534749107E-12 2.541320086E+00
 -8.389285902E-13 2.583637953E+00
 -1.864996737E-13 2.626663685E+00
 4.317102231E-13 2.670404434E+00
 1.010388388E-12 2.714876890E+00
 1.559352148E-12 2.760088682E+00
 2.072643489E-12 2.806056976E+00
 2.560535551E-12 2.852789164E+00
 3.016531903E-12 2.900303364E+00
 3.451817391E-12 2.948607445E+00
 3.859539424E-12 2.997719765E+00
 4.249238548E-12 3.047648430E+00
 4.613708721E-12 3.098412752E+00
 4.969560354E-12 3.150020838E+00
 5.310014581E-12 3.202492714E+00
 5.625970176E-12 3.255836725E+00
 5.909254856E-12 3.310073614E+00
 6.223112737E-12 3.365211964E+00
 6.563930389E-12 3.421273708E+00
 6.354289057E-12 3.478267193E+00
 5.548183007E-12 3.536214828E+00
 0.000000000E+00 3.595125675E+00
ZONE T="CFL3D, Slc: X=0.688"
 0.000000000E+00 0.000000000E+00
 0.000000000E+00 2.890825272E-06
 0.000000000E+00 5.811452866E-06
 0.000000000E+00 8.732080460E-06
 0.000000000E+00 1.165270805E-05
 0.000000000E+00 1.457333565E-05
 0.000000000E+00 1.752376556E-05
 5.296473763E-12 2.044439316E-05
 1.406329133E-11 2.339482307E-05
 1.098012514E-10 2.634525299E-05
 2.608825378E-10 2.929568291E-05
 9.154447200E-10 3.224611282E-05
 1.874703504E-09 3.522634506E-05
 4.529397746E-09 3.820657730E-05
 8.042416511E-09 4.118680954E-05
 1.576231412E-08 4.419684410E-05
 2.537787047E-08 4.720687866E-05
 4.361123729E-08 5.024671555E-05
 6.501758776E-08 5.328655243E-05
 1.018863571E-07 5.635619164E-05
 1.430655487E-07 5.942583084E-05
 2.087100341E-07 6.249547005E-05
 2.807189503E-07 6.562471390E-05
 3.900313743E-07 6.875395775E-05
 5.042770113E-07 7.188320160E-05
 6.709785794E-07 7.504224777E-05
 8.429105378E-07 7.823109627E-05
 1.082031190E-06 8.144974709E-05
 1.326666279E-06 8.466839790E-05
 1.642130542E-06 8.791685104E-05
 1.971972324E-06 9.119510651E-05
 2.365652335E-06 9.450316429E-05
 2.779127954E-06 9.784102440E-05
 3.240361821E-06 1.012086868E-04
 3.713958677E-06 1.045763493E-04
 4.201423508E-06 1.079738140E-04
 4.692147741E-06 1.114308834E-04
 5.149681328E-06 1.148879528E-04
 5.569570021E-06 1.184046268E-04
 5.908726962E-06 1.219511032E-04
 6.127863799E-06 1.254975796E-04
 6.214113455E-06 1.291036606E-04
 6.067567938E-06 1.327395439E-04
 5.739592780E-06 1.364350319E-04
 5.021507604E-06 1.401603222E-04
 4.113663636E-06 1.438856125E-04
 2.619862016E-06 1.477003098E-04
 9.589933825E-07 1.515150070E-04
 -1.481461709E-06 1.553893089E-04
 -4.052500572E-06 1.593232155E-04
 -7.587492746E-06 1.632869244E-04
 -1.122382128E-05 1.672804356E-04
 -1.580198659E-05 1.713335514E-04
 -2.057177699E-05 1.754462719E-04
 -2.616747406E-05 1.795887947E-04
 -3.200972787E-05 1.837909222E-04
 -3.854047463E-05 1.880228519E-04
 -4.535570406E-05 1.923143864E-04
 -5.278049139E-05 1.966655254E-04
 -6.050071534E-05 2.010762691E-04
 -6.869885692E-05 2.055466175E-04
 -7.713925879E-05 2.100467682E-04
 -8.601790614E-05 2.146363258E-04
 -9.510610835E-05 2.192556858E-04
 -1.044926175E-04 2.239346504E-04
 -1.142084293E-04 2.287030220E-04
 -1.241792052E-04 2.335309982E-04
 -1.343492331E-04 2.383887768E-04
 -1.447803079E-04 2.433359623E-04
 -1.554081973E-04 2.483427525E-04
 -1.662391587E-04 2.534389496E-04
 -1.772694086E-04 2.585649490E-04
 -1.885339007E-04 2.638101578E-04
 -1.999776578E-04 2.690851688E-04
 -2.115694660E-04 2.744495869E-04
 -2.234768181E-04 2.799034119E-04
 -2.354524040E-04 2.854168415E-04
 -2.477120725E-04 2.910196781E-04
 -2.600426378E-04 2.966821194E-04
 -2.726564126E-04 3.024339676E-04
 -2.853945189E-04 3.082752228E-04
 -2.983988961E-04 3.142058849E-04
 -3.114658757E-04 3.201961517E-04
 -3.248689172E-04 3.263056278E-04
 -3.383404983E-04 3.324747086E-04
 -3.521523613E-04 3.387629986E-04
 -3.660169314E-04 3.451108932E-04
 -3.802152351E-04 3.515779972E-04
 -3.945404605E-04 3.581345081E-04
 -4.091914161E-04 3.648102283E-04
 -4.238811671E-04 3.715455532E-04
 -4.388628586E-04 3.784000874E-04
 -4.541180679E-04 3.853738308E-04
 -4.695767129E-04 3.924369812E-04
 -4.852923448E-04 3.996193409E-04
 -5.011738394E-04 4.068911076E-04
 -5.173306563E-04 4.142820835E-04
 -5.336925387E-04 4.217922688E-04
 -5.504066357E-04 4.294216633E-04
 -5.672372645E-04 4.371404648E-04
 -5.844823318E-04 4.450082779E-04
 -6.018886925E-04 4.529953003E-04
 -6.196119357E-04 4.611015320E-04
 -6.374577060E-04 4.692971706E-04
 -6.557458546E-04 4.776418209E-04
 -6.742561818E-04 4.861354828E-04
 -6.931020762E-04 4.947483540E-04
 -7.121677627E-04 5.035102367E-04
 -7.315751282E-04 5.123913288E-04
 -7.512155571E-04 5.214214325E-04
 -7.712793304E-04 5.306005478E-04
 -7.915872848E-04 5.399286747E-04
 -8.123295265E-04 5.494058132E-04
 -8.331980789E-04 5.590021610E-04
 -8.545404999E-04 5.687773228E-04
 -8.761131321E-04 5.787014961E-04
 -8.981126593E-04 5.887746811E-04
 -9.204205126E-04 5.990266800E-04
 -9.431627695E-04 6.094276905E-04
 -9.661575896E-04 6.200075150E-04
 -9.895565454E-04 6.307363510E-04
 -1.013349858E-03 6.416738033E-04
 -1.037525362E-03 6.527602673E-04
 -1.062049763E-03 6.640255451E-04
 -1.086993143E-03 6.754696369E-04
 -1.112314407E-03 6.870925426E-04
 -1.138088293E-03 6.989240646E-04
 -1.164233079E-03 7.109344006E-04
 -1.190736075E-03 7.231235504E-04
 -1.217822079E-03 7.355511189E-04
 -1.245169202E-03 7.481276989E-04
 -1.273103058E-03 7.609426975E-04
 -1.301398152E-03 7.739663124E-04
 -1.330270316E-03 7.871985435E-04
 -1.359463902E-03 8.006393909E-04
 -1.389202545E-03 8.142888546E-04
 -1.419335953E-03 8.281767368E-04
 -1.450101030E-03 8.422732353E-04
 -1.481227577E-03 8.566081524E-04
 -1.512968331E-03 8.711814880E-04
 -1.545091276E-03 8.859932423E-04
 -1.577881398E-03 9.010434151E-04
 -1.611044514E-03 9.163320065E-04
 -1.644949662E-03 9.318888187E-04
 -1.679202309E-03 9.476840496E-04
 -1.714157639E-03 9.637475014E-04
 -1.749538351E-03 9.800791740E-04
 -1.785643981E-03 9.966790676E-04
 -1.822115737E-03 1.013517380E-03
 -1.859472250E-03 1.030683517E-03
 -1.897147275E-03 1.048088074E-03
 -1.935594482E-03 1.065790653E-03
 -1.974523067E-03 1.083791256E-03
 -2.014260506E-03 1.102089882E-03
 -2.054456621E-03 1.120686531E-03
 -2.095456235E-03 1.139581203E-03
 -2.136977389E-03 1.158803701E-03
 -2.179308794E-03 1.178324223E-03
 -2.222141251E-03 1.198172569E-03
 -2.265849151E-03 1.218348742E-03
 -2.310029464E-03 1.238852739E-03
 -2.355136909E-03 1.259714365E-03
 -2.400745172E-03 1.280903816E-03
 -2.447297797E-03 1.302450895E-03
 -2.494303975E-03 1.324325800E-03
 -2.542306902E-03 1.346588135E-03
 -2.590826247E-03 1.369208097E-03
 -2.640349092E-03 1.392215490E-03
 -2.690450754E-03 1.415610313E-03
 -2.741498873E-03 1.439362764E-03
 -2.793141641E-03 1.463532448E-03
 -2.845781390E-03 1.488089561E-03
 -2.899035346E-03 1.513063908E-03
 -2.953301184E-03 1.538425684E-03
 -3.008171683E-03 1.564234495E-03
 -3.064092016E-03 1.590460539E-03
 -3.120588604E-03 1.617103815E-03
 -3.178181127E-03 1.644194126E-03
 -3.236446297E-03 1.671761274E-03
 -3.295778530E-03 1.699775457E-03
 -3.355709603E-03 1.728236675E-03
 -3.416743362E-03 1.757174730E-03
 -3.478421830E-03 1.786589622E-03
 -3.541240701E-03 1.816511154E-03
 -3.604745492E-03 1.846939325E-03
 -3.669303143E-03 1.877844334E-03
 -3.734497819E-03 1.909255981E-03
 -3.800844075E-03 1.941204071E-03
 -3.867893480E-03 1.973688602E-03
 -3.936074674E-03 2.006709576E-03
 -4.004837014E-03 2.040266991E-03
 -4.074768163E-03 2.074390650E-03
 -4.145284649E-03 2.109080553E-03
 -4.216947127E-03 2.144336700E-03
 -4.289215896E-03 2.180188894E-03
 -4.362659529E-03 2.216637135E-03
 -4.436592106E-03 2.253681421E-03
 -4.511720035E-03 2.291351557E-03
 -4.587307572E-03 2.329647541E-03
 -4.664047156E-03 2.368569374E-03
 -4.741157871E-03 2.408146858E-03
 -4.819438793E-03 2.448379993E-03
 -4.898057319E-03 2.489298582E-03
 -4.977794830E-03 2.530872822E-03
 -5.057713483E-03 2.573162317E-03
 -5.138760433E-03 2.616137266E-03
 -5.219814368E-03 2.659827471E-03
 -5.302053876E-03 2.704262733E-03
 -5.384080112E-03 2.749413252E-03
 -5.467285868E-03 2.795338631E-03
 -5.550056696E-03 2.842009068E-03
 -5.633944646E-03 2.889454365E-03
 -5.717208609E-03 2.937704325E-03
 -5.801569205E-03 2.986758947E-03
 -5.884939805E-03 3.036618233E-03
 -5.969387013E-03 3.087311983E-03
 -6.052550860E-03 3.138870001E-03
 -6.136705168E-03 3.191262484E-03
 -6.219091825E-03 3.244519234E-03
 -6.302484777E-03 3.298670053E-03
 -6.383663509E-03 3.353714943E-03
 -6.465783808E-03 3.409683704E-03
 -6.545136683E-03 3.466606140E-03
 -6.625323556E-03 3.524452448E-03
 -6.702140439E-03 3.583282232E-03
 -6.779725663E-03 3.643095493E-03
 -6.853229832E-03 3.703892231E-03
 -6.927319337E-03 3.765672445E-03
 -6.996614859E-03 3.828525543E-03
 -7.066361140E-03 3.892421722E-03
 -7.130425423E-03 3.957360983E-03
 -7.194770500E-03 4.023402929E-03
 -7.252560463E-03 4.090547562E-03
 -7.310359273E-03 4.158794880E-03
 -7.360619027E-03 4.228174686E-03
 -7.410630584E-03 4.298716784E-03
 -7.452075370E-03 4.370450974E-03
 -7.492951117E-03 4.443377256E-03
 -7.524181623E-03 4.517525434E-03