TITLE     = "u'v'/Uref^2 profiles CFL3D M=0.875, BSL model"
VARIABLES = "uv","z-z0"
ZONE T="CFL3D, Slc: X=-0.25"
 0.000000000E+00 0.000000000E+00
 0.000000000E+00 3.218650818E-06
 0.000000000E+00 6.467103958E-06
 0.000000000E+00 9.685754776E-06
 0.000000000E+00 1.293420792E-05
 -7.439750205E-11 1.615285873E-05
 -8.495583681E-10 1.940131187E-05
 -2.806364918E-09 2.264976501E-05
 -1.655009108E-08 2.589821815E-05
 -3.851376462E-08 2.917647362E-05
 -1.282662083E-07 3.245472908E-05
 -2.490241684E-07 3.573298454E-05
 -5.918740840E-07 3.901124001E-05
 -1.023108553E-06 4.231929779E-05
 -1.992152875E-06 4.562735558E-05
 -3.171727712E-06 4.896521568E-05
 -5.369455266E-06 5.230307579E-05
 -7.942686352E-06 5.564093590E-05
 -1.219403111E-05 5.900859833E-05
 -1.711019286E-05 6.240606308E-05
 -2.436329305E-05 6.580352783E-05
 -3.258415381E-05 6.923079491E-05
 -4.368283044E-05 7.268786430E-05
 -5.592952220E-05 7.614493370E-05
 -7.116541383E-05 7.963180542E-05
 -8.757870091E-05 8.311867714E-05
 -1.066373661E-04 8.663535118E-05
 -1.270357461E-04 9.021162987E-05
 -1.492982119E-04 9.378790855E-05
 -1.721677691E-04 9.736418724E-05
 -1.965436095E-04 1.010000706E-04
 -2.212625404E-04 1.046657562E-04
 -2.464958816E-04 1.083314419E-04
 -2.715740993E-04 1.120567322E-04
 -2.965535678E-04 1.157820225E-04
 -3.210218274E-04 1.195669174E-04
 -3.452163946E-04 1.233518124E-04
 -3.684362746E-04 1.271963120E-04
 -3.914551635E-04 1.310706139E-04
 -4.130405432E-04 1.349747181E-04
 -4.344394838E-04 1.389086246E-04
 -4.543534305E-04 1.429021358E-04
 -4.741288139E-04 1.469254494E-04
 -4.922063090E-04 1.509785652E-04
 -5.103828153E-04 1.550912857E-04
 -5.268342211E-04 1.592338085E-04
 -5.432880134E-04 1.634061337E-04
 -5.583170569E-04 1.676380634E-04
 -5.733572762E-04 1.719295979E-04
 -5.870755995E-04 1.762509346E-04
 -6.006106269E-04 1.806020737E-04
 -6.131489063E-04 1.850128174E-04
 -6.255088374E-04 1.894831657E-04
 -6.370254559E-04 1.940131187E-04
 -6.482369499E-04 1.985728741E-04
 -6.588744582E-04 2.032220364E-04
 -6.691557355E-04 2.079010010E-04
 -6.788828759E-04 2.126097679E-04
 -6.883168244E-04 2.174079418E-04
 -6.973204436E-04 2.222657204E-04
 -7.059915806E-04 2.271831036E-04
 -7.143777329E-04 2.321600914E-04
 -7.223655120E-04 2.371966839E-04
 -7.301276783E-04 2.422928810E-04
 -7.375056739E-04 2.474486828E-04
 -7.447765092E-04 2.526938915E-04
 -7.516060141E-04 2.579689026E-04
 -7.584166597E-04 2.633631229E-04
 -7.647907478E-04 2.687871456E-04
 -7.711545331E-04 2.743005753E-04
 -7.771234959E-04 2.798736095E-04
 -7.831522380E-04 2.855658531E-04
 -7.887451793E-04 2.912878990E-04
 -7.943940000E-04 2.970993519E-04
 -7.996826898E-04 3.030002117E-04
 -8.050192264E-04 3.089904785E-04
 -8.100430132E-04 3.150701523E-04
 -8.150662761E-04 3.212094307E-04
 -8.198278956E-04 3.274381161E-04
 -8.245951612E-04 3.337562084E-04
 -8.291405975E-04 3.401637077E-04
 -8.336901665E-04 3.466904163E-04
 -8.380206418E-04 3.532767296E-04
 -8.423280669E-04 3.599524498E-04
 -8.465017308E-04 3.667473793E-04
 -8.506283630E-04 3.736317158E-04
 -8.546324680E-04 3.806352615E-04
 -8.585685864E-04 3.876984119E-04
 -8.624269394E-04 3.949105740E-04
 -8.662224282E-04 4.022121429E-04
 -8.699254249E-04 4.096031189E-04
 -8.735759766E-04 4.171133041E-04
 -8.771662833E-04 4.247426987E-04
 -8.806944825E-04 4.324913025E-04
 -8.841750096E-04 4.403591156E-04
 -8.875849890E-04 4.483461380E-04
 -8.909465396E-04 4.564225674E-04
 -8.942491258E-04 4.646480083E-04
 -8.975260425E-04 4.729926586E-04
 -9.007297340E-04 4.814565182E-04
 -9.039315628E-04 4.900693893E-04
 -9.070495144E-04 4.988014698E-04
 -9.101775941E-04 5.076825619E-04
 -9.132083505E-04 5.166828632E-04
 -9.162594797E-04 5.258321762E-04
 -9.192144498E-04 5.351006985E-04
 -9.222097578E-04 5.445480347E-04
 -9.250998846E-04 5.541145802E-04
 -9.280366357E-04 5.638599396E-04
 -9.308705921E-04 5.737245083E-04
 -9.337507654E-04 5.837678909E-04
 -9.365330334E-04 5.939602852E-04
 -9.393515065E-04 6.043016911E-04
 -9.420941933E-04 6.148219109E-04
 -9.448698838E-04 6.254911423E-04
 -9.475575062E-04 6.363093853E-04
 -9.502926259E-04 6.473362446E-04
 -9.529478266E-04 6.585121155E-04
 -9.556481382E-04 6.698966026E-04
 -9.582668426E-04 6.814301014E-04
 -9.609218687E-04 6.931424141E-04
 -9.635160095E-04 7.050633430E-04
 -9.661412914E-04 7.171630859E-04
 -9.687067941E-04 7.294714451E-04
 -9.713014006E-04 7.419586182E-04
 -9.738441440E-04 7.546544075E-04
 -9.764154092E-04 7.675588131E-04
 -9.789345786E-04 7.806718349E-04
 -9.814752266E-04 7.939636707E-04
 -9.839759441E-04 8.074939251E-04
 -9.864992462E-04 8.212327957E-04
 -9.889779612E-04 8.351802826E-04
 -9.914808907E-04 8.493661880E-04
 -9.939448209E-04 8.637905121E-04
 -9.964271449E-04 8.784234524E-04
 -9.988753591E-04 8.932948112E-04
 -1.001347438E-03 9.084343910E-04
 -1.003781566E-03 9.237825871E-04
 -1.006236882E-03 9.393990040E-04
 -1.008660533E-03 9.552538395E-04
 -1.011102693E-03 9.713768959E-04
 -1.013519126E-03 9.877681732E-04
 -1.015950227E-03 1.004427671E-03
 -1.018356066E-03 1.021355391E-03
 -1.020775409E-03 1.038551331E-03
 -1.023171586E-03 1.056015491E-03
 -1.025581849E-03 1.073777676E-03
 -1.027969294E-03 1.091808081E-03
 -1.030372456E-03 1.110166311E-03
 -1.032753848E-03 1.128792763E-03
 -1.035144902E-03 1.147717237E-03
 -1.037522452E-03 1.166969538E-03
 -1.039906405E-03 1.186519861E-03
 -1.042277087E-03 1.206398010E-03
 -1.044655452E-03 1.226603985E-03
 -1.047022874E-03 1.247137785E-03
 -1.049391227E-03 1.267999411E-03
 -1.051755506E-03 1.289218664E-03
 -1.054118853E-03 1.310795546E-03
 -1.056478475E-03 1.332700253E-03
 -1.058832044E-03 1.354962587E-03
 -1.061188639E-03 1.377582550E-03
 -1.063534641E-03 1.400589943E-03
 -1.065886579E-03 1.423954964E-03
 -1.068223035E-03 1.447707415E-03
 -1.070574624E-03 1.471877098E-03
 -1.072901767E-03 1.496404409E-03
 -1.075249631E-03 1.521378756E-03
 -1.077570720E-03 1.546740532E-03
 -1.079910318E-03 1.572489738E-03
 -1.082222676E-03 1.598685980E-03
 -1.084559015E-03 1.625299454E-03
 -1.086862176E-03 1.652359962E-03
 -1.089194673E-03 1.679867506E-03
 -1.091487007E-03 1.707822084E-03
 -1.093811123E-03 1.736223698E-03
 -1.096094144E-03 1.765102148E-03
 -1.098413253E-03 1.794457436E-03
 -1.100686961E-03 1.824319363E-03
 -1.102995127E-03 1.854628325E-03
 -1.105258125E-03 1.885473728E-03
 -1.107557677E-03 1.916795969E-03
 -1.109805773E-03 1.948624849E-03
 -1.112094382E-03 1.980990171E-03
 -1.114333048E-03 2.013921738E-03
 -1.116609899E-03 2.047359943E-03
 -1.118833781E-03 2.081364393E-03
 -1.121097477E-03 2.115905285E-03
 -1.123307273E-03 2.151042223E-03
 -1.125558279E-03 2.186745405E-03
 -1.127748983E-03 2.223014832E-03
 -1.129984390E-03 2.259910107E-03
 -1.132158330E-03 2.297401428E-03
 -1.134376274E-03 2.335518599E-03
 -1.136532868E-03 2.374291420E-03
 -1.138731255E-03 2.413660288E-03
 -1.140865264E-03 2.453684807E-03
 -1.143043861E-03 2.494364977E-03
 -1.145154820E-03 2.535700798E-03
 -1.147312461E-03 2.577751875E-03
 -1.149400719E-03 2.620488405E-03
 -1.151534845E-03 2.663940191E-03
 -1.153597026E-03 2.708107233E-03
 -1.155702979E-03 2.752959728E-03
 -1.157736639E-03 2.798587084E-03
 -1.159815933E-03 2.844959497E-03
 -1.161820139E-03 2.892106771E-03
 -1.163870096E-03 2.940028906E-03
 -1.165842288E-03 2.988755703E-03
 -1.167859416E-03 3.038257360E-03
 -1.169797266E-03 3.088593483E-03
 -1.171779819E-03 3.139734268E-03
 -1.173680415E-03 3.191739321E-03
 -1.175627927E-03 3.244638443E-03
 -1.177489408E-03 3.298372030E-03
 -1.179395476E-03 3.352969885E-03
 -1.181215630E-03 3.408491611E-03
 -1.183080254E-03 3.464937210E-03
 -1.184856985E-03 3.522336483E-03
 -1.186675974E-03 3.580659628E-03
 -1.188406139E-03 3.639936447E-03
 -1.190177165E-03 3.700196743E-03
 -1.191858901E-03 3.761470318E-03
 -1.193579286E-03 3.823757172E-03
 -1.195208519E-03 3.887057304E-03
 -1.196874422E-03 3.951400518E-03
 -1.198448124E-03 4.016786814E-03
 -1.200056984E-03 4.083275795E-03
 -1.201573876E-03 4.150897264E-03
 -1.203122432E-03 4.219591618E-03
 -1.204577740E-03 4.289448261E-03
 -1.206062734E-03 4.360437393E-03
 -1.207452617E-03 4.432588816E-03
 -1.208871021E-03 4.505962133E-03
 -1.210193732E-03 4.580557346E-03
 -1.211541239E-03 4.656344652E-03
 -1.212792355E-03 4.733443260E-03
 -1.214066055E-03 4.811763763E-03
 -1.215241384E-03 4.891395569E-03
 -1.216437551E-03 4.972338676E-03
 -1.217533718E-03 5.054622889E-03
 -1.218648395E-03 5.138278008E-03
 -1.219661790E-03 5.223304033E-03
 -1.220690785E-03 5.309730768E-03
 -1.221617451E-03 5.397617817E-03
 -1.222556806E-03 5.486935377E-03
 -1.223392086E-03 5.577743053E-03
 -1.224237378E-03 5.670011044E-03
 -1.224977430E-03 5.763858557E-03
 -1.225724933E-03 5.859255791E-03
 -1.226364984E-03 5.956202745E-03
 -1.227009692E-03 6.054759026E-03
 -1.227545436E-03 6.154954433E-03
 -1.228082925E-03 6.256788969E-03
 -1.228509704E-03 6.360322237E-03
 -1.228935202E-03 6.465584040E-03
 -1.229248010E-03 6.572574377E-03
 -1.229556510E-03 6.681323051E-03
 -1.229750458E-03 6.791889668E-03
 -1.229936839E-03 6.904274225E-03
 -1.230006805E-03 7.018506527E-03
 -1.230065827E-03 7.134646177E-03
 -1.230006223E-03 7.252722979E-03
 -1.229932532E-03 7.372707129E-03
 -1.229737769E-03 7.494747639E-03
 -1.229525660E-03 7.618725300E-03
 -1.229190268E-03 7.744818926E-03
 -1.228833687E-03 7.872968912E-03
 -1.228351612E-03 8.003234863E-03
 -1.227844390E-03 8.135706186E-03
 -1.227209228E-03 8.270323277E-03
 -1.226545428E-03 8.407175541E-03
 -1.225750661E-03 8.546292782E-03
 -1.224923530E-03 8.687704802E-03
 -1.223962172E-03 8.831501007E-03
 -1.222964842E-03 8.977621794E-03
 -1.221830491E-03 9.126186371E-03
 -1.220655278E-03 9.277224541E-03
 -1.219340018E-03 9.430736303E-03
 -1.217979705E-03 9.586811066E-03
 -1.216475968E-03 9.745448828E-03
 -1.214922522E-03 9.906738997E-03
 -1.213221927E-03 1.007068157E-02
 -1.211467315E-03 1.023733616E-02
 -1.209561247E-03 1.040676236E-02
 -1.207596273E-03 1.057898998E-02
 -1.205475884E-03 1.075407863E-02
 -1.203291700E-03 1.093205810E-02
 -1.200947445E-03 1.111298800E-02
 -1.198534155E-03 1.129689813E-02
 -1.195955672E-03 1.148387790E-02
 -1.193302800E-03 1.167392731E-02
 -1.190479379E-03 1.186716557E-02
 -1.187575981E-03 1.206356287E-02
 -1.184496563E-03 1.226323843E-02
 -1.181330881E-03 1.246619225E-02
 -1.177983242E-03 1.267254353E-02
 -1.174542587E-03 1.288229227E-02
 -1.170914038E-03 1.309552789E-02
 -1.167185488E-03 1.331228018E-02
 -1.163261593E-03 1.353263855E-02
 -1.159230829E-03 1.375663280E-02
 -1.154997386E-03 1.398435235E-02
 -1.150649157E-03 1.421582699E-02
 -1.146090217E-03 1.445114613E-02
 -1.141407993E-03 1.469036937E-02
 -1.136506675E-03 1.493355632E-02
 -1.131473808E-03 1.518073678E-02
 -1.126210904E-03 1.543205976E-02
 -1.120807137E-03 1.568752527E-02
 -1.115164137E-03 1.594722271E-02
 -1.109369099E-03 1.621124148E-02
 -1.103324117E-03 1.647961140E-02
 -1.097117201E-03 1.675242186E-02
 -1.090646838E-03 1.702979207E-02
 -1.084003132E-03 1.731172204E-02
 -1.077082939E-03 1.759833097E-02
 -1.069975784E-03 1.788970828E-02
 -1.062578056E-03 1.818591356E-02
 -1.054981491E-03 1.848697662E-02
 -1.047077472E-03 1.879307628E-02
 -1.038958551E-03 1.910424232E-02
 -1.030515763E-03 1.942056417E-02
 -1.021841890E-03 1.974213123E-02
 -1.012825058E-03 2.006903291E-02
 -1.003560377E-03 2.040132880E-02
 -9.939318988E-04 2.073913813E-02
 -9.840350831E-04 2.108255029E-02
 -9.737508954E-04 2.143165469E-02
 -9.631766006E-04 2.178657055E-02
 -9.521903121E-04 2.214732766E-02
 -9.408900514E-04 2.251410484E-02
 -9.291485767E-04 2.288693190E-02
 -9.170687408E-04 2.326592803E-02
 -9.045134648E-04 2.365124226E-02
 -8.915913641E-04 2.404293418E-02
 -8.781596553E-04 2.444112301E-02
 -8.643328911E-04 2.484586835E-02
 -8.499581018E-04 2.525737882E-02
 -8.351574070E-04 2.567568421E-02
 -8.197735297E-04 2.610093355E-02
 -8.039321983E-04 2.653321624E-02
 -7.874693256E-04 2.697271109E-02
 -7.705183234E-04 2.741944790E-02
 -7.529096329E-04 2.787363529E-02
 -7.347798091E-04 2.833530307E-02
 -7.159559173E-04 2.880465984E-02
 -6.965776556E-04 2.928176522E-02
 -6.764710997E-04 2.976682782E-02
 -6.557790330E-04 3.025987744E-02
 -6.343281711E-04 3.076115251E-02
 -6.122623454E-04 3.127071261E-02
 -5.894154310E-04 3.178873658E-02
 -5.659315502E-04 3.231534362E-02
 -5.416554632E-04 3.285068274E-02
 -5.166916526E-04 3.339490294E-02
 -4.908837145E-04 3.394815326E-02
 -4.644341534E-04 3.451055288E-02
 -4.372246913E-04 3.508234024E-02
 -4.094512260E-04 3.566354513E-02
 -3.810652415E-04 3.625443578E-02
 -3.521093458E-04 3.685510159E-02
 -3.225649998E-04 3.746575117E-02
 -2.925093577E-04 3.808647394E-02
 -2.619646257E-04 3.871756792E-02
 -2.310707641E-04 3.935906291E-02
 -1.999547821E-04 4.001125693E-02
 -1.688882330E-04 4.067423940E-02
 -1.382183109E-04 4.134821892E-02
 -1.087753553E-04 4.203337431E-02
 -8.146334585E-05 4.272991419E-02
 -5.732473801E-05 4.343798757E-02
 -3.813880539E-05 4.415783286E-02
 -2.278480315E-05 4.488956928E-02
 -1.340554809E-05 4.563349485E-02
 -6.479002877E-06 4.638975859E-02
 -3.542841569E-06 4.715856910E-02
 -1.448187163E-06 4.794010520E-02
 -8.527476325E-07 4.873463511E-02
 -3.978774430E-07 4.954230785E-02
 -2.546320843E-07 5.036345124E-02
 -1.362256512E-07 5.119815469E-02
 -8.291790010E-08 5.204674602E-02
 -4.021964983E-08 5.290940404E-02
 -2.376537900E-08 5.378639698E-02
 -1.058389199E-08 5.467790365E-02
 -6.366626337E-09 5.558425188E-02
 -2.944994915E-09 5.650559068E-02
 -1.959092222E-09 5.744224787E-02
 -1.149409790E-09 5.839440227E-02
 -9.344598428E-10 5.936244130E-02
 -7.560860826E-10 6.034645438E-02
 -7.137989644E-10 6.134688854E-02
 -6.786644580E-10 6.236386299E-02
 -6.729857227E-10 6.339776516E-02
 -6.686442511E-10 6.444877386E-02
 -6.703482214E-10 6.551724672E-02
 -6.723068213E-10 6.660345197E-02
 -6.754335424E-10 6.770771742E-02
 -6.786214368E-10 6.883025169E-02
 -6.820097265E-10 6.997147202E-02
 -6.854223855E-10 7.113158703E-02
 -6.888525306E-10 7.231101394E-02
 -6.922953877E-10 7.350996137E-02
 -6.957234233E-10 7.472887635E-02
 -6.991557888E-10 7.596796751E-02
 -7.025683368E-10 7.722765207E-02
 -7.059768325E-10 7.850822806E-02
 -7.093660104E-10 7.981011271E-02
 -7.127418655E-10 8.113354445E-02
 -7.161002347E-10 8.247900009E-02
 -7.194351781E-10 8.384674788E-02
 -7.227545784E-10 8.523726463E-02
 -7.260398949E-10 8.665078878E-02
 -7.293121662E-10 8.808785677E-02
 -7.325389184E-10 8.954870701E-02
 -7.357554010E-10 9.103390574E-02
 -7.389143741E-10 9.254369140E-02
 -7.420660753E-10 9.407857060E-02
 -7.451473882E-10 9.563890100E-02
 -7.482249820E-10 9.722524881E-02
 -7.512186428E-10 9.883782268E-02
 -7.542120817E-10 1.004772484E-01
 -7.571078209E-10 1.021438241E-01
 -7.600072793E-10 1.038381457E-01
 -7.627943277E-10 1.055605412E-01
 -7.655892587E-10 1.073116064E-01
 -7.682568470E-10 1.090916991E-01
 -7.709367589E-10 1.109014153E-01
 -7.734737850E-10 1.127411127E-01
 -7.760277421E-10 1.146114469E-01
 -7.784228817E-10 1.165127158E-01
 -7.808397262E-10 1.184456944E-01
 -7.830817106E-10 1.204106808E-01
 -7.853503958E-10 1.224084198E-01
 -7.874276786E-10 1.244392097E-01
 -7.895367693E-10 1.265038252E-01
 -7.914379152E-10 1.286026835E-01
 -7.933761426E-10 1.307364702E-01
 -7.950897718E-10 1.329056025E-01
 -7.968458671E-10 1.351108551E-01
 -7.983605999E-10 1.373526454E-01
 -7.999232388E-10 1.396318078E-01
 -8.012277508E-10 1.419487000E-01
 -8.025857756E-10 1.443042159E-01
 -8.036691312E-10 1.466987729E-01
 -8.048116062E-10 1.491332054E-01
 -8.056630363E-10 1.516079307E-01
 -8.065793033E-10 1.541239023E-01
 -8.071883717E-10 1.566815376E-01
 -8.078680502E-10 1.592818499E-01
 -8.082247094E-10 1.619251370E-01
 -8.086576964E-10 1.646125913E-01
 -8.087523984E-10 1.673445106E-01
 -8.089292014E-10 1.701219678E-01
 -8.087528980E-10 1.729454398E-01
 -8.086644687E-10 1.758159995E-01
 -8.082086667E-10 1.787340641E-01
 -8.078464009E-10 1.817008257E-01
 -8.071032176E-10 1.847166419E-01
 -8.064593993E-10 1.877827644E-01
 -8.054216183E-10 1.908997297E-01
 -8.044889754E-10 1.940686107E-01
 -8.031502130E-10 1.972900629E-01
 -8.019223063E-10 2.005650997E-01
 -8.002769558E-10 2.038944960E-01
 -7.987482342E-10 2.072793841E-01
 -7.967916327E-10 2.107203007E-01
 -7.949573222E-10 2.142186761E-01
 -7.926855283E-10 2.177749276E-01
 -7.905416322E-10 2.213904858E-01
 -7.879517039E-10 2.250660062E-01
 -7.854954465E-10 2.288027406E-01
 -7.825856074E-10 2.326014638E-01
 -7.798149904E-10 2.364635468E-01
 -7.765843524E-10 2.403895259E-01
 -7.734984320E-10 2.443810701E-01
 -7.699470506E-10 2.484387159E-01
 -7.665461044E-10 2.525640130E-01
 -7.626753118E-10 2.567577362E-01
 -7.589604500E-10 2.610213161E-01
 -7.547726333E-10 2.653556466E-01
 -7.507462430E-10 2.697621584E-01
 -7.462448992E-10 2.742418051E-01
 -7.419104220E-10 2.787960768E-01
 -7.371002142E-10 2.834258676E-01
 -7.324622575E-10 2.881329060E-01
 -7.273489588E-10 2.929179072E-01
 -7.224130738E-10 2.977827787E-01
 -7.170035121E-10 3.027282357E-01
 -7.117767487E-10 3.077562451E-01
 -7.060790286E-10 3.128675222E-01
 -7.005693248E-10 3.180640936E-01
 -6.945923836E-10 3.233468533E-01
 -6.888087323E-10 3.287177086E-01
 -6.825630061E-10 3.341775537E-01
 -6.765155103E-10 3.397285342E-01
 -6.700120458E-10 3.453715444E-01
 -6.637119188E-10 3.511086106E-01
 -6.569630395E-10 3.569408655E-01
 -6.504223826E-10 3.628703952E-01
 -6.434413558E-10 3.688982725E-01
 -6.366731586E-10 3.750267029E-01
 -6.294740840E-10 3.812567592E-01
 -6.224925020E-10 3.875907063E-01
 -6.150903675E-10 3.940297365E-01
 -6.079100556E-10 4.005761743E-01
 -6.003206821E-10 4.072311521E-01
 -5.929572389E-10 4.139972329E-01
 -5.851970575E-10 4.208754301E-01
 -5.776666923E-10 4.278684855E-01
 -5.697527450E-10 4.349774122E-01
 -5.620723886E-10 4.422050714E-01
 -5.540222725E-10 4.495525360E-01
 -5.462094110E-10 4.570226073E-01
 -5.380411672E-10 4.646165967E-01
 -5.301133421E-10 4.723373055E-01
 -5.218454557E-10 4.801860452E-01
 -5.138208192E-10 4.881657958E-01
 -5.054718866E-10 4.962779284E-01
 -4.973688683E-10 5.045254230E-01
 -4.889578187E-10 5.129096508E-01
 -4.807946818E-10 5.214339495E-01
 -4.723402780E-10 5.300995708E-01
 -4.641356743E-10 5.389098525E-01
 -4.556567623E-10 5.478662252E-01
 -4.474290938E-10 5.569721460E-01
 -4.389442698E-10 5.662291050E-01
 -4.307117163E-10 5.756406188E-01
 -4.222393546E-10 5.852082372E-01
 -4.140199572E-10 5.949355960E-01
 -4.055782099E-10 6.048242450E-01
 -3.973895657E-10 6.148780584E-01
 -3.889958355E-10 6.250987053E-01
 -3.808551252E-10 6.354899406E-01
 -3.725266484E-10 6.460535526E-01
 -3.644504698E-10 6.567935944E-01
 -3.562036777E-10 6.677117348E-01
 -3.482080735E-10 6.788122654E-01
 -3.400586757E-10 6.900969744E-01
 -3.321591058E-10 7.015700340E-01
 -3.241222013E-10 7.132335901E-01
 -3.163332096E-10 7.250918150E-01
 -3.084231481E-10 7.371467352E-01
 -3.007585847E-10 7.494029999E-01
 -2.929885778E-10 7.618627548E-01
 -2.854613768E-10 7.745305300E-01
 -2.778441088E-10 7.874084711E-01
 -2.704663438E-10 8.005017042E-01
 -2.630142493E-10 8.138118982E-01
 -2.557966339E-10 8.273445368E-01
 -2.485205375E-10 8.411017656E-01
 -2.414727862E-10 8.550888300E-01
 -2.343823469E-10 8.693079948E-01
 -2.282438405E-10 8.822281361E-01
 -2.275141742E-10 8.837646246E-01
 -2.206180377E-10 8.984612226E-01
 -2.139369376E-10 9.134032726E-01
 -2.072438471E-10 9.285932779E-01
 -2.007575217E-10 9.440371990E-01
 -1.942740829E-10 9.597373009E-01
 -1.879895267E-10 9.756997824E-01
 -1.817213879E-10 9.919271469E-01
 -1.756444989E-10 1.008425713E+00
 -1.695964619E-10 1.025197983E+00
 -1.637323610E-10 1.042250633E+00
 -1.579083114E-10 1.059586167E+00
 -1.522611481E-10 1.077211618E+00
 -1.466641253E-10 1.095129371E+00
 -1.412372580E-10 1.113346815E+00
 -1.358694685E-10 1.131866455E+00
 -1.306654646E-10 1.150695682E+00
 -1.255283794E-10 1.169837356E+00
 -1.205489042E-10 1.189299107E+00
 -1.156431964E-10 1.209083796E+00
 -1.108891937E-10 1.229199290E+00
 -1.062148355E-10 1.249648571E+00
 -1.016865689E-10 1.270439625E+00
 -9.724281796E-11 1.291575909E+00
 -9.293970454E-11 1.313065529E+00
 -8.872515223E-11 1.334911942E+00
 -8.464603324E-11 1.357123494E+00
 -8.065863949E-11 1.379703879E+00
 -7.680166225E-11 1.402661681E+00
 -7.303880417E-11 1.426000476E+00
 -6.940144293E-11 1.449729681E+00
 -6.585976903E-11 1.473852873E+00
 -6.243894290E-11 1.498379350E+00
 -5.911465761E-11 1.523313046E+00
 -5.590665431E-11 1.548663616E+00
 -5.279534449E-11 1.574435115E+00
 -4.979584453E-11 1.600637674E+00
 -4.689258010E-11 1.627274990E+00
 -4.409673668E-11 1.654358149E+00
 -4.139597692E-11 1.681890965E+00
 -3.879842281E-11 1.709883928E+00
 -3.629420722E-11 1.738342047E+00
 -3.388896108E-11 1.767276049E+00
 -3.157483303E-11 1.796690464E+00
 -2.935547985E-11 1.826596737E+00
 -2.722446400E-11 1.856999874E+00
 -2.518405449E-11 1.887911558E+00
 -2.322878521E-11 1.919336319E+00
 -2.135994853E-11 1.951287031E+00
 -1.957259528E-11 1.983768225E+00
 -1.786753384E-11 2.016792774E+00
 -1.623991913E-11 2.050365925E+00
 -1.469042943E-11 2.084500551E+00
 -1.321403924E-11 2.119202375E+00
 -1.181158209E-11 2.154484510E+00
 -1.047761964E-11 2.190352678E+00
 -9.213355773E-12 2.226821184E+00
 -8.012745849E-12 2.263895512E+00
 -6.877611761E-12 2.301589727E+00
 -5.801124772E-12 2.339910507E+00
 -4.785844897E-12 2.378872156E+00
 -3.824108998E-12 2.418481350E+00
 -2.919287858E-12 2.458753347E+00
 -2.062852493E-12 2.499694347E+00
 -1.259034869E-12 2.541320086E+00
 -4.984267122E-13 2.583637953E+00
 2.138698290E-13 2.626663685E+00
 8.880836604E-13 2.670404434E+00
 1.518307615E-12 2.714876890E+00
 2.115531925E-12 2.760088682E+00
 2.673124526E-12 2.806056976E+00
 3.202535459E-12 2.852789164E+00
 3.696520954E-12 2.900303364E+00
 4.167733433E-12 2.948607445E+00
 4.608529270E-12 2.997719765E+00
 5.029305965E-12 3.047648430E+00
 5.422001823E-12 3.098412752E+00
 5.806005416E-12 3.150020838E+00
 6.173768094E-12 3.202492714E+00
 6.513198401E-12 3.255836725E+00
 6.815086689E-12 3.310073614E+00
 7.155059097E-12 3.365211964E+00
 7.529261069E-12 3.421273708E+00
 7.279421857E-12 3.478267193E+00
 6.353680169E-12 3.536214828E+00
 0.000000000E+00 3.595125675E+00
ZONE T="CFL3D, Slc: X=0.688"
 0.000000000E+00 0.000000000E+00
 0.000000000E+00 2.890825272E-06
 0.000000000E+00 5.811452866E-06
 0.000000000E+00 8.732080460E-06
 0.000000000E+00 1.165270805E-05
 0.000000000E+00 1.457333565E-05
 0.000000000E+00 1.752376556E-05
 -9.939905843E-11 2.044439316E-05
 -2.720268177E-10 2.339482307E-05
 -2.476812089E-09 2.634525299E-05
 -6.119754925E-09 2.929568291E-05
 -2.424555312E-08 3.224611282E-05
 -5.222137389E-08 3.522634506E-05
 -1.399895382E-07 3.820657730E-05
 -2.627042477E-07 4.118680954E-05
 -5.652552204E-07 4.419684410E-05
 -9.638587244E-07 4.720687866E-05
 -1.806453156E-06 5.024671555E-05
 -2.850013288E-06 5.328655243E-05
 -4.843373063E-06 5.635619164E-05
 -7.177593034E-06 5.942583084E-05
 -1.128602526E-05 6.249547005E-05
 -1.596208858E-05 6.562471390E-05
 -2.379423859E-05 6.875395775E-05
 -3.216691766E-05 7.188320160E-05
 -4.561162496E-05 7.504224777E-05
 -5.959426926E-05 7.823109627E-05
 -8.089067705E-05 8.144974709E-05
 -1.026404352E-04 8.466839790E-05
 -1.330003433E-04 8.791685104E-05
 -1.644207659E-04 9.119510651E-05
 -2.048459719E-04 9.450316429E-05
 -2.466950682E-04 9.784102440E-05
 -2.971102658E-04 1.012086868E-04
 -3.485961061E-04 1.045763493E-04
 -4.066262627E-04 1.079738140E-04
 -4.665677843E-04 1.114308834E-04
 -5.306652747E-04 1.148879528E-04
 -5.963218864E-04 1.184046268E-04
 -6.652161246E-04 1.219511032E-04
 -7.336802664E-04 1.254975796E-04
 -8.046637522E-04 1.291036606E-04
 -8.748815162E-04 1.327395439E-04
 -9.468546486E-04 1.364350319E-04
 -1.017186674E-03 1.401603222E-04
 -1.087725745E-03 1.438856125E-04
 -1.157380990E-03 1.477003098E-04
 -1.227095723E-03 1.515150070E-04
 -1.294739894E-03 1.553893089E-04
 -1.363282325E-03 1.593232155E-04
 -1.429627067E-03 1.632869244E-04
 -1.496012672E-03 1.672804356E-04
 -1.560785458E-03 1.713335514E-04
 -1.625611796E-03 1.754462719E-04
 -1.688812161E-03 1.795887947E-04
 -1.751741627E-03 1.837909222E-04
 -1.813387149E-03 1.880228519E-04
 -1.874537440E-03 1.923143864E-04
 -1.935166423E-03 1.966655254E-04
 -1.995025901E-03 2.010762691E-04
 -2.054518322E-03 2.055466175E-04
 -2.112719230E-03 2.100467682E-04
 -2.171176486E-03 2.146363258E-04
 -2.228124300E-03 2.192556858E-04
 -2.285083989E-03 2.239346504E-04
 -2.341313520E-03 2.287030220E-04
 -2.397771692E-03 2.335309982E-04
 -2.452684101E-03 2.383887768E-04
 -2.508337609E-03 2.433359623E-04
 -2.562265377E-03 2.483427525E-04
 -2.616961254E-03 2.534389496E-04
 -2.669957932E-03 2.585649490E-04
 -2.723953221E-03 2.638101578E-04
 -2.776295878E-03 2.690851688E-04
 -2.829198958E-03 2.744495869E-04
 -2.881180262E-03 2.799034119E-04
 -2.933254465E-03 2.854168415E-04
 -2.984455321E-03 2.910196781E-04
 -3.035612870E-03 2.966821194E-04
 -3.086037003E-03 3.024339676E-04
 -3.136485815E-03 3.082752228E-04
 -3.186245682E-03 3.142058849E-04
 -3.235646524E-03 3.201961517E-04
 -3.284715582E-03 3.263056278E-04
 -3.333303379E-03 3.324747086E-04
 -3.381646238E-03 3.387629986E-04
 -3.429302713E-03 3.451108932E-04
 -3.476761281E-03 3.515779972E-04
 -3.523624502E-03 3.581345081E-04
 -3.570455825E-03 3.648102283E-04
 -3.615983063E-03 3.715455532E-04
 -3.661747091E-03 3.784000874E-04
 -3.706418443E-03 3.853738308E-04
 -3.751445562E-03 3.924369812E-04
 -3.794816788E-03 3.996193409E-04
 -3.838737728E-03 4.068911076E-04
 -3.880744800E-03 4.142820835E-04
 -3.923611715E-03 4.217922688E-04
 -3.964416217E-03 4.294216633E-04
 -4.005941097E-03 4.371404648E-04
 -4.045464098E-03 4.450082779E-04
 -4.085704219E-03 4.529953003E-04
 -4.123749677E-03 4.611015320E-04
 -4.162280355E-03 4.692971706E-04
 -4.198902752E-03 4.776418209E-04
 -4.236046690E-03 4.861354828E-04
 -4.271094222E-03 4.947483540E-04
 -4.306480754E-03 5.035102367E-04
 -4.339826759E-03 5.123913288E-04
 -4.373361357E-03 5.214214325E-04
 -4.405027721E-03 5.306005478E-04
 -4.436708987E-03 5.399286747E-04
 -4.466580227E-03 5.494058132E-04
 -4.496107344E-03 5.590021610E-04
 -4.523937125E-03 5.687773228E-04
 -4.551385995E-03 5.787014961E-04
 -4.577126354E-03 5.887746811E-04
 -4.602388944E-03 5.990266800E-04
 -4.626057111E-03 6.094276905E-04
 -4.648897797E-03 6.200075150E-04
 -4.670443013E-03 6.307363510E-04
 -4.690699279E-03 6.416738033E-04
 -4.710135516E-03 6.527602673E-04
 -4.727620631E-03 6.640255451E-04
 -4.744821228E-03 6.754696369E-04
 -4.759506322E-03 6.870925426E-04
 -4.774326459E-03 6.989240646E-04
 -4.786229227E-03 7.109344006E-04
 -4.798467737E-03 7.231235504E-04
 -4.807644058E-03 7.355511189E-04
 -4.817290232E-03 7.481276989E-04
 -4.823649768E-03 7.609426975E-04
 -4.830669146E-03 7.739663124E-04
 -4.834206309E-03 7.871985435E-04
 -4.838480148E-03 8.006393909E-04
 -4.839244764E-03 8.142888546E-04
 -4.840675276E-03 8.281767368E-04
 -4.838781431E-03 8.422732353E-04
 -4.837373272E-03 8.566081524E-04
 -4.832835402E-03 8.711814880E-04
 -4.828616977E-03 8.859932423E-04
 -4.821475130E-03 9.010434151E-04
 -4.814496730E-03 9.163320065E-04
 -4.804797936E-03 9.318888187E-04
 -4.795121029E-03 9.476840496E-04
 -4.782971926E-03 9.637475014E-04
 -4.770686850E-03 9.800791740E-04
 -4.756164271E-03 9.966790676E-04
 -4.741410725E-03 1.013517380E-03
 -4.724598955E-03 1.030683517E-03
 -4.707472399E-03 1.048088074E-03
 -4.688594490E-03 1.065790653E-03
 -4.669240210E-03 1.083791256E-03
 -4.648366943E-03 1.102089882E-03
 -4.626958165E-03 1.120686531E-03
 -4.604286514E-03 1.139581203E-03
 -4.580991808E-03 1.158803701E-03
 -4.556679633E-03 1.178324223E-03
 -4.531724378E-03 1.198172569E-03
 -4.505958408E-03 1.218348742E-03
 -4.479541909E-03 1.238852739E-03
 -4.452510271E-03 1.259714365E-03
 -4.424815997E-03 1.280903816E-03
 -4.396714736E-03 1.302450895E-03
 -4.367997870E-03 1.324325800E-03
 -4.339044914E-03 1.346588135E-03
 -4.309467971E-03 1.369208097E-03
 -4.279836547E-03 1.392215490E-03
 -4.249586724E-03 1.415610313E-03
 -4.219482653E-03 1.439362764E-03
 -4.188804887E-03 1.463532448E-03
 -4.158389755E-03 1.488089561E-03
 -4.127449822E-03 1.513063908E-03
 -4.096886609E-03 1.538425684E-03
 -4.065881483E-03 1.564234495E-03
 -4.035279620E-03 1.590460539E-03
 -4.004420713E-03 1.617103815E-03
 -3.973909654E-03 1.644194126E-03
 -3.943280317E-03 1.671761274E-03
 -3.912956920E-03 1.699775457E-03
 -3.882746911E-03 1.728236675E-03
 -3.852745751E-03 1.757174730E-03
 -3.823014675E-03 1.786589622E-03
 -3.793384414E-03 1.816511154E-03
 -3.764178138E-03 1.846939325E-03
 -3.735010047E-03 1.877844334E-03
 -3.706447082E-03 1.909255981E-03
 -3.677774454E-03 1.941204071E-03
 -3.649801016E-03 1.973688602E-03
 -3.621622687E-03 2.006709576E-03
 -3.594312817E-03 2.040266991E-03
 -3.566680942E-03 2.074390650E-03
 -3.539994359E-03 2.109080553E-03
 -3.512914293E-03 2.144336700E-03
 -3.486807225E-03 2.180188894E-03
 -3.460245207E-03 2.216637135E-03
 -3.434689017E-03 2.253681421E-03
 -3.408638062E-03 2.291351557E-03
 -3.383565694E-03 2.329647541E-03
 -3.357986920E-03 2.368569374E-03
 -3.333368106E-03 2.408146858E-03
 -3.308215877E-03 2.448379993E-03
 -3.283967962E-03 2.489298582E-03
 -3.259185934E-03 2.530872822E-03
 -3.235281911E-03 2.573162317E-03
 -3.210826078E-03 2.616137266E-03
 -3.187207738E-03 2.659827471E-03
 -3.163011046E-03 2.704262733E-03
 -3.139619483E-03 2.749413252E-03
 -3.115643049E-03 2.795338631E-03
 -3.092428902E-03 2.842009068E-03
 -3.068640130E-03 2.889454365E-03
 -3.045554273E-03 2.937704325E-03
 -3.021891462E-03 2.986758947E-03
 -2.998911543E-03 3.036618233E-03
 -2.975352574E-03 3.087311983E-03
 -2.952429233E-03 3.138870001E-03
 -2.928941511E-03 3.191262484E-03
 -2.906087087E-03 3.244519234E-03
 -2.882652683E-03 3.298670053E-03
 -2.859827597E-03 3.353714943E-03
 -2.836426487E-03 3.409683704E-03
 -2.813627012E-03 3.466606140E-03
 -2.790267114E-03 3.524452448E-03
 -2.767499536E-03 3.583282232E-03
 -2.744173864E-03 3.643095493E-03
 -2.721445635E-03 3.703892231E-03
 -2.698191209E-03 3.765672445E-03
 -2.675523981E-03 3.828525543E-03
 -2.652338007E-03 3.892421722E-03
 -2.629771829E-03 3.957360983E-03
 -2.606695052E-03 4.023402929E-03
 -2.584246686E-03 4.090547562E-03
 -2.561319387E-03 4.158794880E-03
 -2.539050533E-03 4.228174686E-03
 -2.516316483E-03 4.298716784E-03
 -2.494271612E-03 4.370450974E-03
 -2.471786225E-03 4.443377256E-03