TITLE     = "Surface Pressure Coefficients CFL3D M=0.875, SST-2003 model"
VARIABLES = "x","cp"
ZONE T="CFL3D"
 -0.319885492E+01  0.261498721E-01
 -0.314820910E+01  0.178497137E-01
 -0.309756351E+01  0.986485162E-02
 -0.304691768E+01  0.908680907E-02
 -0.299627185E+01  0.770588866E-02
 -0.294820833E+01  0.707046909E-02
 -0.290014482E+01  0.654372947E-02
 -0.285208130E+01  0.620258654E-02
 -0.280401778E+01  0.597728585E-02
 -0.275840497E+01  0.582251813E-02
 -0.271279216E+01  0.569873510E-02
 -0.266717935E+01  0.562882493E-02
 -0.262156653E+01  0.561886001E-02
 -0.257827902E+01  0.563256178E-02
 -0.253499150E+01  0.564891048E-02
 -0.249170399E+01  0.569624386E-02
 -0.244841671E+01  0.578608388E-02
 -0.240733647E+01  0.588806864E-02
 -0.236625600E+01  0.598522665E-02
 -0.232517576E+01  0.610620704E-02
 -0.228409553E+01  0.626222038E-02
 -0.224510980E+01  0.642633021E-02
 -0.220612407E+01  0.658405626E-02
 -0.216713834E+01  0.676264638E-02
 -0.212815261E+01  0.697331109E-02
 -0.209115481E+01  0.719035958E-02
 -0.205415678E+01  0.740133569E-02
 -0.201715875E+01  0.763302016E-02
 -0.198016083E+01  0.789568932E-02
 -0.194504917E+01  0.816458655E-02
 -0.190993738E+01  0.842896842E-02
 -0.187482572E+01  0.871483717E-02
 -0.183971405E+01  0.903169059E-02
 -0.180639231E+01  0.935539490E-02
 -0.177307069E+01  0.967660798E-02
 -0.173974895E+01  0.100211764E-01
 -0.170642722E+01  0.103978193E-01
 -0.167480481E+01  0.107822474E-01
 -0.164318240E+01  0.111669868E-01
 -0.161155999E+01  0.115780399E-01
 -0.157993746E+01  0.120228804E-01
 -0.154992712E+01  0.124772186E-01
 -0.151991665E+01  0.129351380E-01
 -0.148990619E+01  0.134231078E-01
 -0.145989585E+01  0.139479790E-01
 -0.143141568E+01  0.144845279E-01
 -0.140293550E+01  0.150285504E-01
 -0.137445533E+01  0.156080730E-01
 -0.134597516E+01  0.162283895E-01
 -0.131894696E+01  0.168630305E-01
 -0.129191887E+01  0.175099720E-01
 -0.126489067E+01  0.181987974E-01
 -0.123786247E+01  0.189337105E-01
 -0.121221232E+01  0.196865293E-01
 -0.118656218E+01  0.204572539E-01
 -0.116091204E+01  0.212778030E-01
 -0.113526189E+01  0.221512908E-01
 -0.111091971E+01  0.230471997E-01
 -0.108657765E+01  0.239677096E-01
 -0.106223547E+01  0.249481646E-01
 -0.103789330E+01  0.259904333E-01
 -0.101479208E+01  0.270604170E-01
 -0.991690814E+00  0.281634094E-01
 -0.968589544E+00  0.293386476E-01
 -0.945488274E+00  0.305869100E-01
 -0.923564911E+00  0.318695825E-01
 -0.901641548E+00  0.331955401E-01
 -0.879718244E+00  0.346091579E-01
 -0.857794881E+00  0.361099688E-01
 -0.836989284E+00  0.376537534E-01
 -0.816183686E+00  0.392529679E-01
 -0.795378089E+00  0.409591497E-01
 -0.774572492E+00  0.427701188E-01
 -0.754827678E+00  0.446348051E-01
 -0.735082924E+00  0.465701801E-01
 -0.715338111E+00  0.486361890E-01
 -0.695593297E+00  0.508295621E-01
 -0.676855206E+00  0.530900427E-01
 -0.658117115E+00  0.554398962E-01
 -0.639378965E+00  0.579505898E-01
 -0.620640874E+00  0.606165182E-01
 -0.602858126E+00  0.633668371E-01
 -0.585075438E+00  0.662301956E-01
 -0.567292690E+00  0.692917626E-01
 -0.549509943E+00  0.725446873E-01
 -0.532633901E+00  0.759039565E-01
 -0.515757859E+00  0.794061600E-01
 -0.498881817E+00  0.831535940E-01
 -0.482005775E+00  0.871389406E-01
 -0.465990126E+00  0.912586579E-01
 -0.449974477E+00  0.955593009E-01
 -0.433958828E+00  0.100165120E+00
 -0.417943180E+00  0.105068952E+00
 -0.402744114E+00  0.110143745E+00
 -0.387545049E+00  0.115448198E+00
 -0.372345984E+00  0.121134744E+00
 -0.357146919E+00  0.127197777E+00
 -0.342722803E+00  0.133480194E+00
 -0.328298658E+00  0.140055020E+00
 -0.313874513E+00  0.147110341E+00
 -0.299450397E+00  0.154645536E+00
 -0.285761684E+00  0.162463641E+00
 -0.272072971E+00  0.170654497E+00
 -0.258384287E+00  0.179451812E+00
 -0.244695574E+00  0.188861814E+00
 -0.231704801E+00  0.198639428E+00
 -0.218714014E+00  0.208888351E+00
 -0.205723241E+00  0.219997840E+00
 -0.192732468E+00  0.231749910E+00
 -0.180404082E+00  0.244647946E+00
 -0.168075755E+00  0.259475130E+00
 -0.155747339E+00  0.274777204E+00
 -0.143419310E+00  0.288298671E+00
 -0.131715715E+00  0.299324392E+00
 -0.120013840E+00  0.309418703E+00
 -0.108315386E+00  0.318962142E+00
 -0.966231525E-01  0.326729021E+00
 -0.855044648E-01  0.332277771E+00
 -0.743956789E-01  0.336090444E+00
 -0.632985532E-01  0.338888252E+00
 -0.522147976E-01  0.340477501E+00
 -0.416557342E-01  0.341128180E+00
 -0.311102606E-01  0.341174423E+00
 -0.205806866E-01  0.340543052E+00
 -0.100697502E-01  0.338734730E+00
 -0.421104196E-04  0.335786358E+00
  0.996813551E-02  0.332159126E+00
  0.199586805E-01  0.327750426E+00
  0.299268235E-01  0.321934180E+00
  0.394494683E-01  0.314837442E+00
  0.489521585E-01  0.306895398E+00
  0.584316961E-01  0.297580686E+00
  0.678842589E-01  0.285979958E+00
  0.769195482E-01  0.271289169E+00
  0.859305784E-01  0.253302794E+00
  0.949241519E-01  0.232599264E+00
  0.103908032E+00  0.210931005E+00
  0.112464227E+00  0.186756412E+00
  0.120999984E+00  0.154974379E+00
  0.129536316E+00  0.117625690E+00
  0.138095871E+00  0.824574507E-01
  0.146183506E+00  0.550325800E-01
  0.154288426E+00  0.319178501E-01
  0.162408113E+00  0.912480035E-02
  0.170539990E+00 -0.128517485E-01
  0.178222433E+00 -0.344395095E-01
  0.185914844E+00 -0.555849214E-01
  0.193617374E+00 -0.764306071E-01
  0.201330304E+00 -0.965167788E-01
  0.208623022E+00 -0.115311403E+00
  0.215924010E+00 -0.133457996E+00
  0.223233253E+00 -0.151511790E+00
  0.230550811E+00 -0.168939974E+00
  0.237473488E+00 -0.185356096E+00
  0.244402841E+00 -0.201280822E+00
  0.251338840E+00 -0.217158837E+00
  0.258281469E+00 -0.232515252E+00
  0.264852703E+00 -0.246998022E+00
  0.271429300E+00 -0.261076435E+00
  0.278011203E+00 -0.275146284E+00
  0.284598410E+00 -0.288783438E+00
  0.290835857E+00 -0.301671665E+00
  0.297077566E+00 -0.314228091E+00
  0.303323478E+00 -0.326804136E+00
  0.309573621E+00 -0.339014281E+00
  0.315494031E+00 -0.350563939E+00
  0.321417868E+00 -0.361827572E+00
  0.327345014E+00 -0.373128263E+00
  0.333275437E+00 -0.384121442E+00
  0.338894874E+00 -0.394533385E+00
  0.344516933E+00 -0.404695739E+00
  0.350141585E+00 -0.414903869E+00
  0.355768830E+00 -0.424847461E+00
  0.361102432E+00 -0.434269608E+00
  0.366438121E+00 -0.443465052E+00
  0.371775806E+00 -0.452710944E+00
  0.377115428E+00 -0.461737452E+00
  0.382177681E+00 -0.470310245E+00
  0.387241513E+00 -0.478688721E+00
  0.392306834E+00 -0.487124652E+00
  0.397373676E+00 -0.495372806E+00
  0.402178288E+00 -0.503207727E+00
  0.406984091E+00 -0.510852847E+00
  0.411790997E+00 -0.518542810E+00
  0.416599035E+00 -0.526069752E+00
  0.421159089E+00 -0.533233442E+00
  0.425719976E+00 -0.540226327E+00
  0.430281699E+00 -0.547261719E+00
  0.434844196E+00 -0.554161027E+00
  0.439172089E+00 -0.560739045E+00
  0.443500578E+00 -0.567158168E+00
  0.447829634E+00 -0.573611312E+00
  0.452159196E+00 -0.579945345E+00
  0.456266671E+00 -0.585991095E+00
  0.460374534E+00 -0.591886593E+00
  0.464482754E+00 -0.597808404E+00
  0.468591273E+00 -0.603628932E+00
  0.472489566E+00 -0.609200647E+00
  0.476388067E+00 -0.614646556E+00
  0.480286747E+00 -0.620122748E+00
  0.484185576E+00 -0.625510969E+00
  0.487885326E+00 -0.630662990E+00
  0.491585135E+00 -0.635677760E+00
  0.495285004E+00 -0.640703585E+00
  0.498984903E+00 -0.645650547E+00
  0.502496123E+00 -0.650399611E+00
  0.506007373E+00 -0.655040152E+00
  0.509518504E+00 -0.659699999E+00
  0.513029635E+00 -0.664291804E+00
  0.516361952E+00 -0.668696145E+00
  0.519694149E+00 -0.672990871E+00
  0.523026288E+00 -0.677297119E+00
  0.526358247E+00 -0.681542021E+00
  0.529520810E+00 -0.685621022E+00
  0.532683194E+00 -0.689602009E+00
  0.535845399E+00 -0.693593584E+00
  0.539007366E+00 -0.697530274E+00
  0.542008758E+00 -0.701312274E+00
  0.545009851E+00 -0.704997505E+00
  0.548010826E+00 -0.708687329E+00
  0.551011503E+00 -0.712328263E+00
  0.553859949E+00 -0.715834359E+00
  0.556708097E+00 -0.719257700E+00
  0.559556067E+00 -0.722688669E+00
  0.562403738E+00 -0.726076276E+00
  0.565106928E+00 -0.729339166E+00
  0.567809880E+00 -0.732526462E+00
  0.570512593E+00 -0.735722011E+00
  0.573215008E+00 -0.738877933E+00
  0.575780451E+00 -0.741916378E+00
  0.578345597E+00 -0.744880009E+00
  0.580910504E+00 -0.747847532E+00
  0.583475113E+00 -0.750778387E+00
  0.585909784E+00 -0.753601108E+00
  0.588344157E+00 -0.756350181E+00
  0.590778232E+00 -0.759097619E+00
  0.593212068E+00 -0.761809480E+00
  0.595522642E+00 -0.764425973E+00
  0.597832918E+00 -0.766981586E+00
  0.600142896E+00 -0.769533463E+00
  0.602452636E+00 -0.772031934E+00
  0.604645371E+00 -0.774393465E+00
  0.606837869E+00 -0.776615254E+00
  0.609030128E+00 -0.778706954E+00
  0.611222029E+00 -0.780545716E+00
  0.613303006E+00 -0.781949057E+00
  0.615383685E+00 -0.782697438E+00
  0.617464125E+00 -0.782445668E+00
  0.619544268E+00 -0.780544626E+00
  0.621519148E+00 -0.776296999E+00
  0.623493791E+00 -0.768778309E+00
  0.625468135E+00 -0.757038539E+00
  0.627442241E+00 -0.740305876E+00
  0.629316449E+00 -0.719191993E+00
  0.631190360E+00 -0.694401911E+00
  0.633064091E+00 -0.666845939E+00
  0.634937584E+00 -0.637964944E+00
  0.636716187E+00 -0.609981726E+00
  0.638494611E+00 -0.583636415E+00
  0.640272737E+00 -0.558735394E+00
  0.642050683E+00 -0.535622688E+00
  0.643738627E+00 -0.514978637E+00
  0.645426333E+00 -0.496608923E+00
  0.647113860E+00 -0.479738619E+00
  0.648801148E+00 -0.464295168E+00
  0.650403023E+00 -0.450531896E+00
  0.652004719E+00 -0.438284070E+00
  0.653606176E+00 -0.426949904E+00
  0.655207455E+00 -0.416449055E+00
  0.656727672E+00 -0.406954507E+00
  0.658247650E+00 -0.398408962E+00
  0.659767509E+00 -0.390392804E+00
  0.661287129E+00 -0.382856208E+00
  0.662729800E+00 -0.375935257E+00
  0.664172351E+00 -0.369629329E+00
  0.665614665E+00 -0.363639943E+00
  0.667056859E+00 -0.357939384E+00
  0.668425977E+00 -0.352636799E+00
  0.669794917E+00 -0.347752429E+00
  0.671163738E+00 -0.343063310E+00
  0.672532380E+00 -0.338556829E+00
  0.673831701E+00 -0.334322515E+00
  0.675130844E+00 -0.330383723E+00
  0.676429868E+00 -0.326566379E+00
  0.677728713E+00 -0.322869704E+00
  0.678961754E+00 -0.319368746E+00
  0.680194676E+00 -0.316081567E+00
  0.681427479E+00 -0.312868346E+00
  0.682660103E+00 -0.309737180E+00
  0.683830321E+00 -0.306753309E+00
  0.685000420E+00 -0.303926384E+00
  0.686170340E+00 -0.301141967E+00
  0.687340140E+00 -0.298415938E+00
  0.688450694E+00 -0.295806996E+00
  0.689561069E+00 -0.293314987E+00
  0.690671325E+00 -0.290847267E+00
  0.691781461E+00 -0.288423143E+00
  0.692835391E+00 -0.286095088E+00
  0.693889260E+00 -0.283856717E+00
  0.694942951E+00 -0.281633761E+00
  0.695996404E+00 -0.279447239E+00
  0.696996510E+00 -0.277339657E+00
  0.697996616E+00 -0.275308370E+00
  0.698996663E+00 -0.273273657E+00
  0.699996412E+00 -0.271264946E+00
  0.700996459E+00 -0.269268692E+00
  0.701996446E+00 -0.267292056E+00
  0.702996433E+00 -0.265331769E+00
  0.703996420E+00 -0.263385650E+00
  0.704996705E+00 -0.261451365E+00
  0.705996692E+00 -0.259528291E+00
  0.706996560E+00 -0.257617050E+00
  0.707996488E+00 -0.255717330E+00
  0.709031343E+00 -0.253788651E+00
  0.710066020E+00 -0.251845335E+00
  0.711100519E+00 -0.249922105E+00
  0.712134898E+00 -0.248003701E+00
  0.713205457E+00 -0.246058205E+00
  0.714275897E+00 -0.244100409E+00
  0.715346217E+00 -0.242161765E+00
  0.716416419E+00 -0.240224521E+00
  0.717524052E+00 -0.238258940E+00
  0.718631566E+00 -0.236282148E+00
  0.719738901E+00 -0.234324664E+00
  0.720846117E+00 -0.232367802E+00
  0.721992135E+00 -0.230382447E+00
  0.723137915E+00 -0.228386815E+00
  0.724283576E+00 -0.226411113E+00
  0.725429058E+00 -0.224435723E+00
  0.726614714E+00 -0.222431995E+00
  0.727800190E+00 -0.220418924E+00
  0.728985488E+00 -0.218426407E+00
  0.730170608E+00 -0.216434512E+00
  0.731397271E+00 -0.214414591E+00
  0.732623756E+00 -0.212386573E+00
  0.733850002E+00 -0.210380198E+00
  0.735076129E+00 -0.208374446E+00
  0.736345232E+00 -0.206341602E+00
  0.737614155E+00 -0.204301906E+00
  0.738882840E+00 -0.202284788E+00
  0.740151346E+00 -0.200269382E+00
  0.741464376E+00 -0.198227351E+00
  0.742777228E+00 -0.196180027E+00
  0.744089842E+00 -0.194156213E+00
  0.745402157E+00 -0.192134735E+00
  0.746760666E+00 -0.190087877E+00
  0.748118937E+00 -0.188036816E+00
  0.749476969E+00 -0.186010355E+00
  0.750834703E+00 -0.183987320E+00
  0.752240241E+00 -0.181939840E+00
  0.753645480E+00 -0.179889557E+00
  0.755050421E+00 -0.177865120E+00
  0.756455123E+00 -0.175845199E+00
  0.757909298E+00 -0.173801923E+00
  0.759363174E+00 -0.171756933E+00
  0.760816693E+00 -0.169738881E+00
  0.762269974E+00 -0.167726433E+00
  0.763774455E+00 -0.165691876E+00
  0.765278637E+00 -0.163656696E+00
  0.766782522E+00 -0.161649387E+00
  0.768285990E+00 -0.159648773E+00
  0.769842625E+00 -0.157627139E+00
  0.771398842E+00 -0.155605972E+00
  0.772954702E+00 -0.153613610E+00
  0.774510264E+00 -0.151629345E+00
  0.776120663E+00 -0.149625150E+00
  0.777730763E+00 -0.147622512E+00
  0.779340386E+00 -0.145649457E+00
  0.780949652E+00 -0.143685588E+00
  0.782615900E+00 -0.141702880E+00
  0.784281731E+00 -0.139722663E+00
  0.785947084E+00 -0.137772652E+00
  0.787612021E+00 -0.135833073E+00
  0.789335907E+00 -0.133875900E+00
  0.791059315E+00 -0.131921685E+00
  0.792782307E+00 -0.129998766E+00
  0.794504762E+00 -0.128087369E+00
  0.796288311E+00 -0.126159623E+00
  0.798071384E+00 -0.124235615E+00
  0.799853981E+00 -0.122343213E+00
  0.801635981E+00 -0.120463580E+00
  0.803481340E+00 -0.118568532E+00
  0.805326104E+00 -0.116677843E+00
  0.807170272E+00 -0.114819385E+00
  0.809013903E+00 -0.112974784E+00
  0.810923159E+00 -0.111116014E+00
  0.812831759E+00 -0.109261916E+00
  0.814739704E+00 -0.107440670E+00
  0.816647053E+00 -0.105634372E+00
  0.818622410E+00 -0.103814840E+00
  0.820597053E+00 -0.102000445E+00
  0.822571039E+00 -0.100219371E+00
  0.824544311E+00 -0.984541779E-01
  0.826588035E+00 -0.966766847E-01
  0.828631043E+00 -0.949047967E-01
  0.830673277E+00 -0.931665404E-01
  0.832714736E+00 -0.914450999E-01
  0.834829271E+00 -0.897126045E-01
  0.836942971E+00 -0.879858701E-01
  0.839055836E+00 -0.862930787E-01
  0.841167867E+00 -0.846177260E-01
  0.843355656E+00 -0.829320969E-01
  0.845542550E+00 -0.812528516E-01
  0.847728491E+00 -0.796075493E-01
  0.849913538E+00 -0.779806198E-01
  0.852177083E+00 -0.763441925E-01
  0.854439557E+00 -0.747144605E-01
  0.856701076E+00 -0.731186714E-01
  0.858961582E+00 -0.715418779E-01
  0.861303508E+00 -0.699565209E-01
  0.863644361E+00 -0.683778590E-01
  0.865984082E+00 -0.668332959E-01
  0.868322730E+00 -0.653081955E-01
  0.870745838E+00 -0.637754657E-01
  0.873167694E+00 -0.622495868E-01
  0.875588357E+00 -0.607578066E-01
  0.878007770E+00 -0.592859563E-01
  0.880514801E+00 -0.578069437E-01
  0.883020520E+00 -0.563354047E-01
  0.885524809E+00 -0.548978088E-01
  0.888027787E+00 -0.534806099E-01
  0.890621722E+00 -0.520573385E-01
  0.893214166E+00 -0.506418523E-01
  0.895805120E+00 -0.492603091E-01
  0.898394525E+00 -0.478996299E-01
  0.901078343E+00 -0.465338126E-01
  0.903760552E+00 -0.451764032E-01
  0.906441033E+00 -0.438532482E-01
  0.909119844E+00 -0.425517357E-01
  0.911896765E+00 -0.412467979E-01
  0.914671779E+00 -0.399513578E-01
  0.917444944E+00 -0.386911064E-01
  0.920216322E+00 -0.374548331E-01
  0.923089445E+00 -0.362184041E-01
  0.925960481E+00 -0.349950540E-01
  0.928829551E+00 -0.338100066E-01
  0.931696534E+00 -0.326548540E-01
  0.934669256E+00 -0.315065523E-01
  0.937639773E+00 -0.303778690E-01
  0.940607965E+00 -0.292924709E-01
  0.943574011E+00 -0.282463096E-01
  0.946649909E+00 -0.272174312E-01
  0.949723423E+00 -0.262091056E-01
  0.952794313E+00 -0.252479575E-01
  0.955862403E+00 -0.243081407E-01
  0.959043205E+00 -0.233351593E-01
  0.962220550E+00 -0.223494104E-01
  0.965397298E+00 -0.214363743E-01
  0.968575895E+00 -0.205426452E-01
  0.971857548E+00 -0.194985081E-01
  0.975139141E+00 -0.183701362E-01
  0.978427470E+00 -0.171788608E-01
  0.981728852E+00 -0.160515788E-01
  0.985092759E+00 -0.152310296E-01
  0.988486469E+00 -0.145214959E-01
  0.991901696E+00 -0.136480081E-01
  0.995331824E+00 -0.125794258E-01
  0.998826146E+00 -0.115187842E-01
  0.100233817E+01 -0.104860133E-01
  0.100586522E+01 -0.943346830E-02
  0.100940502E+01 -0.830852186E-02
  0.101303482E+01 -0.697618045E-02
  0.101667213E+01 -0.552752970E-02
  0.102031612E+01 -0.417074309E-02
  0.102396548E+01 -0.291033597E-02
  0.102773249E+01 -0.144782775E-02
  0.103149998E+01  0.321413268E-03
  0.103526759E+01  0.235830591E-02
  0.103903508E+01  0.474506078E-02
  0.104293311E+01  0.731928077E-02
  0.104683113E+01  0.997602279E-02
  0.105072916E+01  0.127293000E-01
  0.105462718E+01  0.156192835E-01
  0.105866003E+01  0.186383439E-01
  0.106269276E+01  0.217243562E-01
  0.106672549E+01  0.248525636E-01
  0.107075834E+01  0.280855585E-01
  0.107493055E+01  0.314289460E-01
  0.107910287E+01  0.348159301E-01
  0.108327508E+01  0.382211313E-01
  0.108744740E+01  0.417163282E-01
  0.109176397E+01  0.453027664E-01
  0.109608042E+01  0.489029064E-01
  0.110039699E+01  0.524933929E-01
  0.110471356E+01  0.561528553E-01
  0.110917950E+01  0.598766227E-01
  0.111364555E+01  0.635775018E-01
  0.111811161E+01  0.672360301E-01
  0.112257755E+01  0.709362864E-01
  0.112719786E+01  0.746678389E-01
  0.113181818E+01  0.783363320E-01
  0.113643849E+01  0.819288426E-01
  0.114105868E+01  0.855330309E-01
  0.114583898E+01  0.891334823E-01
  0.115061927E+01  0.926321046E-01
  0.115539956E+01  0.960245383E-01
  0.116017985E+01  0.994000004E-01
  0.116512561E+01  0.102738405E+00
  0.117007136E+01  0.105941194E+00
  0.117501712E+01  0.109013816E+00
  0.117996299E+01  0.112044865E+00
  0.118507969E+01  0.115009274E+00
  0.119019651E+01  0.117811909E+00
  0.119531333E+01  0.120467406E+00
  0.120043004E+01  0.123062490E+00
  0.120572388E+01  0.125566955E+00
  0.121101761E+01  0.127891118E+00
  0.121631145E+01  0.130059423E+00
  0.122160518E+01  0.132155015E+00
  0.122708201E+01  0.134142862E+00
  0.123255873E+01  0.135939818E+00
  0.123803556E+01  0.137579826E+00
  0.124351227E+01  0.139140894E+00
  0.124917889E+01  0.140583472E+00
  0.125484538E+01  0.141832046E+00
  0.126051188E+01  0.142929433E+00
  0.126617849E+01  0.143946945E+00
  0.127204072E+01  0.144841141E+00
  0.127790296E+01  0.145545225E+00
  0.128376532E+01  0.146109178E+00
  0.128962755E+01  0.146597615E+00
  0.129569292E+01  0.146963514E+00
  0.130175817E+01  0.147148177E+00
  0.130782342E+01  0.147208433E+00
  0.131388867E+01  0.147201271E+00
  0.132016397E+01  0.147076865E+00
  0.132643926E+01  0.146784769E+00
  0.133271456E+01  0.146387106E+00
  0.133898985E+01  0.145932923E+00
  0.134548187E+01  0.145370372E+00
  0.135197389E+01  0.144656946E+00
  0.135846603E+01  0.143858039E+00
  0.136495805E+01  0.143015848E+00
  0.137167478E+01  0.142076498E+00
  0.137839162E+01  0.141004957E+00
  0.138510835E+01  0.139868645E+00
  0.139182520E+01  0.138702748E+00
  0.139877427E+01  0.137452773E+00
  0.140572321E+01  0.136090070E+00
  0.141267228E+01  0.134682836E+00
  0.141962135E+01  0.133259720E+00
  0.142681110E+01  0.131766072E+00
  0.143400097E+01  0.130178846E+00
  0.144119072E+01  0.128565930E+00
  0.144838047E+01  0.126950055E+00
  0.145581877E+01  0.125277038E+00
  0.146325707E+01  0.123528817E+00
  0.147069538E+01  0.121771721E+00
  0.147813368E+01  0.120023188E+00
  0.148582923E+01  0.118230280E+00
  0.149352479E+01  0.116378829E+00
  0.150122035E+01  0.114532827E+00
  0.150891590E+01  0.112705353E+00
  0.151687765E+01  0.110844871E+00
  0.152483952E+01  0.108940792E+00
  0.153280127E+01  0.107053996E+00
  0.154076302E+01  0.105193669E+00
  0.154900038E+01  0.103310454E+00
  0.155723763E+01  0.101396255E+00
  0.156547499E+01  0.995088360E-01
  0.157371223E+01  0.976539590E-01
  0.158223450E+01  0.957846016E-01
  0.159075689E+01  0.938954701E-01
  0.159927917E+01  0.920402816E-01
  0.160780144E+01  0.902224616E-01
  0.161661851E+01  0.883973236E-01
  0.162543559E+01  0.865608193E-01
  0.163425255E+01  0.847633962E-01
  0.164306962E+01  0.830059886E-01
  0.165219200E+01  0.812468682E-01
  0.166131425E+01  0.794830767E-01
  0.167043662E+01  0.777611691E-01
  0.167955887E+01  0.760805225E-01
  0.168899643E+01  0.744020557E-01
  0.169843400E+01  0.727239003E-01
  0.170787156E+01  0.710887186E-01
  0.171730912E+01  0.694949537E-01
  0.172707343E+01  0.679061712E-01
  0.173683774E+01  0.663215926E-01
  0.174660206E+01  0.647804549E-01
  0.175636637E+01  0.632805783E-01
  0.176646841E+01  0.617880196E-01
  0.177657044E+01  0.603026232E-01
  0.178667247E+01  0.588605119E-01
  0.179677451E+01  0.574584160E-01
  0.180722606E+01  0.560655066E-01
  0.181767774E+01  0.546817835E-01
  0.182812929E+01  0.533402557E-01
  0.183858085E+01  0.520371862E-01
  0.184939384E+01  0.507443931E-01
  0.186020696E+01  0.494618763E-01
  0.187101996E+01  0.482199978E-01
  0.188183308E+01  0.470148648E-01
  0.189302039E+01  0.458201639E-01
  0.190420771E+01  0.446366736E-01
  0.191539502E+01  0.434917973E-01
  0.192658234E+01  0.423813311E-01
  0.193815637E+01  0.412816084E-01
  0.194973052E+01  0.401934076E-01
  0.196130455E+01  0.391414854E-01
  0.197287858E+01  0.381216377E-01
  0.198485339E+01  0.371123778E-01
  0.199682820E+01  0.361146399E-01
  0.200880313E+01  0.351506892E-01
  0.202077794E+01  0.342166333E-01
  0.203316665E+01  0.332926981E-01
  0.204555559E+01  0.323801291E-01
  0.205794430E+01  0.314987005E-01
  0.207033324E+01  0.306449868E-01
  0.208315063E+01  0.298009266E-01
  0.209596825E+01  0.289676099E-01
  0.210878587E+01  0.281630980E-01
  0.212160349E+01  0.273841213E-01
  0.213486433E+01  0.266140195E-01
  0.214812517E+01  0.258541941E-01
  0.216138601E+01  0.251208380E-01
  0.217464685E+01  0.244106815E-01
  0.218836665E+01  0.237089329E-01
  0.220208645E+01  0.230166822E-01
  0.221580625E+01  0.223487209E-01
  0.222952604E+01  0.217017794E-01
  0.224372053E+01  0.210626230E-01
  0.225791478E+01  0.204323416E-01
  0.227210903E+01  0.198241698E-01
  0.228630352E+01  0.192349937E-01
  0.230098891E+01  0.186528242E-01
  0.231567454E+01  0.180787512E-01
  0.233036017E+01  0.175250751E-01
  0.234504580E+01  0.169882149E-01
  0.236023903E+01  0.164578941E-01
  0.237543249E+01  0.159348913E-01
  0.239062572E+01  0.154302614E-01
  0.240581918E+01  0.149410459E-01
  0.242153811E+01  0.144571243E-01
  0.243725729E+01  0.139802093E-01
  0.245297647E+01  0.135197987E-01
  0.246869540E+01  0.130729342E-01
  0.248495865E+01  0.126308964E-01
  0.250122166E+01  0.121950867E-01
  0.251748490E+01  0.117740687E-01
  0.253374791E+01  0.113650397E-01
  0.255057359E+01  0.109602147E-01
  0.256739902E+01  0.105608392E-01
  0.258422470E+01  0.101746985E-01
  0.260105038E+01  0.979898970E-02
  0.261845779E+01  0.942686209E-02
  0.263586545E+01  0.905940554E-02
  0.265327311E+01  0.870362663E-02
  0.267068076E+01  0.835703413E-02
  0.268869042E+01  0.801324427E-02
  0.270670033E+01  0.767334696E-02
  0.272471023E+01  0.734372598E-02
  0.274272013E+01  0.702189009E-02
  0.276135302E+01  0.670192263E-02
  0.277998590E+01  0.638522490E-02
  0.279861879E+01  0.607755789E-02
  0.281725144E+01  0.577611895E-02
  0.283652925E+01  0.547561423E-02
  0.285580683E+01  0.517775644E-02
  0.287508440E+01  0.488737234E-02
  0.289436197E+01  0.460181500E-02
  0.291430664E+01  0.431641337E-02
  0.293425131E+01  0.403241305E-02
  0.295419574E+01  0.375448511E-02
  0.297414041E+01  0.348013831E-02
  0.299477482E+01  0.320439019E-02
  0.301540923E+01  0.292910918E-02
  0.303604364E+01  0.265834352E-02
  0.305667806E+01  0.238929059E-02
  0.307802629E+01  0.211759072E-02
  0.309937477E+01  0.184464524E-02
  0.312072301E+01  0.157465810E-02
  0.314207149E+01  0.130435955E-02
  0.316415834E+01  0.102938994E-02
  0.318624520E+01  0.751461997E-03
  0.320833206E+01  0.474001159E-03
  0.323041892E+01  0.194049090E-03
  0.325327015E+01 -0.933766713E-04
  0.327612114E+01 -0.386563404E-03
  0.329897237E+01 -0.681929964E-03
  0.332182360E+01 -0.982901793E-03
  0.334546518E+01 -0.129523986E-02
  0.336910677E+01 -0.161707575E-02
  0.339274836E+01 -0.194513972E-02
  0.341638994E+01 -0.228363571E-02
  0.344084954E+01 -0.263879181E-02
  0.346530890E+01 -0.300936240E-02
  0.348976827E+01 -0.339192204E-02
  0.351422763E+01 -0.379192030E-02
  0.353953338E+01 -0.421729797E-02
  0.356483889E+01 -0.466727654E-02
  0.359014463E+01 -0.513874199E-02
  0.361545014E+01 -0.563854518E-02
  0.364163136E+01 -0.617820806E-02
  0.366781259E+01 -0.675788635E-02
  0.369399381E+01 -0.737493309E-02
  0.372017479E+01 -0.803900182E-02
  0.374726176E+01 -0.876830966E-02
  0.377434874E+01 -0.956519213E-02
  0.380143547E+01 -0.104287150E-01
  0.382852244E+01 -0.113746043E-01
  0.385654640E+01 -0.124330660E-01
  0.388457036E+01 -0.136129752E-01
  0.391259432E+01 -0.149190030E-01
  0.394061804E+01 -0.163802656E-01
  0.396961188E+01 -0.180540613E-01
  0.399860549E+01 -0.199676380E-01
  0.402759933E+01 -0.221443510E-01
  0.405659294E+01 -0.246509963E-01
  0.408658934E+01 -0.276172738E-01
  0.411658573E+01 -0.311333348E-01
  0.414658213E+01 -0.353025653E-01
  0.417657852E+01 -0.403357859E-01
  0.420761299E+01 -0.466238083E-01
  0.423864746E+01 -0.546323370E-01
  0.426968193E+01 -0.648431138E-01
  0.430071640E+01 -0.789237064E-01
  0.433282423E+01 -0.985813864E-01
  0.436493206E+01 -0.137227072E+00
  0.439703989E+01 -0.191119247E+00
  0.442914820E+01 -0.217680283E+00
