TITLE     = "u'v'/Uref^2 profiles CFL3D M=0.875, SA model"
VARIABLES = "uv","z-z0"
ZONE T="CFL3D, Slc: X=-0.25"
 0.000000000E+00 0.000000000E+00
 0.000000000E+00 3.218650818E-06
 0.000000000E+00 6.467103958E-06
 0.000000000E+00 9.685754776E-06
 0.000000000E+00 1.293420792E-05
 -8.171825439E-10 1.615285873E-05
 -8.435873333E-09 1.940131187E-05
 -2.008431288E-08 2.264976501E-05
 -7.240959832E-08 2.589821815E-05
 -1.378379153E-07 2.917647362E-05
 -3.116732046E-07 3.245472908E-05
 -5.136527648E-07 3.573298454E-05
 -9.249068853E-07 3.901124001E-05
 -1.392764261E-06 4.231929779E-05
 -2.210544153E-06 4.562735558E-05
 -3.130643336E-06 4.896521568E-05
 -4.559782155E-06 5.230307579E-05
 -6.137056062E-06 5.564093590E-05
 -8.429190530E-06 5.900859833E-05
 -1.097071254E-05 6.240606308E-05
 -1.442999928E-05 6.580352783E-05
 -1.825521031E-05 6.923079491E-05
 -2.322719592E-05 7.268786430E-05
 -2.868269439E-05 7.614493370E-05
 -3.545970685E-05 7.963180542E-05
 -4.286976400E-05 8.311867714E-05
 -5.171297744E-05 8.663535118E-05
 -6.151590060E-05 9.021162987E-05
 -7.274076779E-05 9.378790855E-05
 -8.490272012E-05 9.736418724E-05
 -9.867108747E-05 1.010000706E-04
 -1.136253923E-04 1.046657562E-04
 -1.299021096E-04 1.083314419E-04
 -1.474334567E-04 1.120567322E-04
 -1.659905247E-04 1.157820225E-04
 -1.858134056E-04 1.195669174E-04
 -2.064938599E-04 1.233518124E-04
 -2.281759662E-04 1.271963120E-04
 -2.506246383E-04 1.310706139E-04
 -2.735744347E-04 1.349747181E-04
 -2.970441128E-04 1.389086246E-04
 -3.207362606E-04 1.429021358E-04
 -3.447178460E-04 1.469254494E-04
 -3.683050745E-04 1.509785652E-04
 -3.922317701E-04 1.550912857E-04
 -4.152689944E-04 1.592338085E-04
 -4.383848573E-04 1.634061337E-04
 -4.604503338E-04 1.676380634E-04
 -4.825883661E-04 1.719295979E-04
 -5.033172201E-04 1.762509346E-04
 -5.238024751E-04 1.806020737E-04
 -5.430061137E-04 1.850128174E-04
 -5.619309959E-04 1.894831657E-04
 -5.795761244E-04 1.940131187E-04
 -5.967002944E-04 1.985728741E-04
 -6.128263776E-04 2.032220364E-04
 -6.283071125E-04 2.079010010E-04
 -6.427675253E-04 2.126097679E-04
 -6.566406228E-04 2.174079418E-04
 -6.696737837E-04 2.222657204E-04
 -6.820363924E-04 2.271831036E-04
 -6.937932339E-04 2.321600914E-04
 -7.047735853E-04 2.371966839E-04
 -7.152719772E-04 2.422928810E-04
 -7.250172785E-04 2.474486828E-04
 -7.344803307E-04 2.526938915E-04
 -7.431288250E-04 2.579689026E-04
 -7.516478072E-04 2.633631229E-04
 -7.593790651E-04 2.687871456E-04
 -7.670269115E-04 2.743005753E-04
 -7.739630528E-04 2.798736095E-04
 -7.809273084E-04 2.855658531E-04
 -7.871587295E-04 2.912878990E-04
 -7.934352034E-04 2.970993519E-04
 -7.991002640E-04 3.030002117E-04
 -8.048032760E-04 3.089904785E-04
 -8.099992410E-04 3.150701523E-04
 -8.151754155E-04 3.212094307E-04
 -8.199426229E-04 3.274381161E-04
 -8.246931247E-04 3.337562084E-04
 -8.291102131E-04 3.401637077E-04
 -8.335069288E-04 3.466904163E-04
 -8.376040496E-04 3.532767296E-04
 -8.416547789E-04 3.599524498E-04
 -8.455109783E-04 3.667473793E-04
 -8.492993657E-04 3.736317158E-04
 -8.529227343E-04 3.806352615E-04
 -8.564621676E-04 3.876984119E-04
 -8.598918212E-04 3.949105740E-04
 -8.632454555E-04 4.022121429E-04
 -8.664877969E-04 4.096031189E-04
 -8.696670993E-04 4.171133041E-04
 -8.727720124E-04 4.247426987E-04
 -8.758093463E-04 4.324913025E-04
 -8.787895786E-04 4.403591156E-04
 -8.816990885E-04 4.483461380E-04
 -8.845556295E-04 4.564225674E-04
 -8.873551851E-04 4.646480083E-04
 -8.901244728E-04 4.729926586E-04
 -8.928285679E-04 4.814565182E-04
 -8.955250960E-04 4.900693893E-04
 -8.981500287E-04 4.988014698E-04
 -9.007800254E-04 5.076825619E-04
 -9.033294045E-04 5.166828632E-04
 -9.058940341E-04 5.258321762E-04
 -9.083813056E-04 5.351006985E-04
 -9.109017556E-04 5.445480347E-04
 -9.133392014E-04 5.541145802E-04
 -9.158161120E-04 5.638599396E-04
 -9.182132781E-04 5.737245083E-04
 -9.206507239E-04 5.837678909E-04
 -9.230130236E-04 5.939602852E-04
 -9.254085599E-04 6.043016911E-04
 -9.277476929E-04 6.148219109E-04
 -9.301187238E-04 6.254911423E-04
 -9.324224666E-04 6.363093853E-04
 -9.347720188E-04 6.473362446E-04
 -9.370606858E-04 6.585121155E-04
 -9.393944638E-04 6.698966026E-04
 -9.416651446E-04 6.814301014E-04
 -9.439744172E-04 6.931424141E-04
 -9.462381131E-04 7.050633430E-04
 -9.485366172E-04 7.171630859E-04
 -9.507901268E-04 7.294714451E-04
 -9.530774551E-04 7.419586182E-04
 -9.553261334E-04 7.546544075E-04
 -9.576088050E-04 7.675588131E-04
 -9.598520119E-04 7.806718349E-04
 -9.621236240E-04 7.939636707E-04
 -9.643658414E-04 8.074939251E-04
 -9.666380356E-04 8.212327957E-04
 -9.688761202E-04 8.351802826E-04
 -9.711461025E-04 8.493661880E-04
 -9.733863990E-04 8.637905121E-04
 -9.756537620E-04 8.784234524E-04
 -9.778953390E-04 8.932948112E-04
 -9.801693959E-04 9.084343910E-04
 -9.824134177E-04 9.237825871E-04
 -9.846880566E-04 9.393990040E-04
 -9.869377827E-04 9.552538395E-04
 -9.892161470E-04 9.713768959E-04
 -9.914743714E-04 9.877681732E-04
 -9.937578579E-04 1.004427671E-03
 -9.960212046E-04 1.021355391E-03
 -9.983092314E-04 1.038551331E-03
 -1.000578399E-03 1.056015491E-03
 -1.002873178E-03 1.073777676E-03
 -1.005148748E-03 1.091808081E-03
 -1.007451792E-03 1.110166311E-03
 -1.009736094E-03 1.128792763E-03
 -1.012042514E-03 1.147717237E-03
 -1.014337642E-03 1.166969538E-03
 -1.016651746E-03 1.186519861E-03
 -1.018954557E-03 1.206398010E-03
 -1.021277742E-03 1.226603985E-03
 -1.023591729E-03 1.247137785E-03
 -1.025919337E-03 1.267999411E-03
 -1.028244267E-03 1.289218664E-03
 -1.030581072E-03 1.310795546E-03
 -1.032915432E-03 1.332700253E-03
 -1.035256428E-03 1.354962587E-03
 -1.037601614E-03 1.377582550E-03
 -1.039948780E-03 1.400589943E-03
 -1.042302931E-03 1.423954964E-03
 -1.044654404E-03 1.447707415E-03
 -1.047021942E-03 1.471877098E-03
 -1.049377257E-03 1.496404409E-03
 -1.051754458E-03 1.521378756E-03
 -1.054117223E-03 1.546740532E-03
 -1.056499314E-03 1.572489738E-03
 -1.058866386E-03 1.598685980E-03
 -1.061258488E-03 1.625299454E-03
 -1.063629403E-03 1.652359962E-03
 -1.066030702E-03 1.679867506E-03
 -1.068403479E-03 1.707822084E-03
 -1.070809434E-03 1.736223698E-03
 -1.073185704E-03 1.765102148E-03
 -1.075599575E-03 1.794457436E-03
 -1.077978988E-03 1.824319363E-03
 -1.080394723E-03 1.854628325E-03
 -1.082775532E-03 1.885473728E-03
 -1.085195341E-03 1.916795969E-03
 -1.087573124E-03 1.948624849E-03
 -1.089994679E-03 1.980990171E-03
 -1.092375140E-03 2.013921738E-03
 -1.094797277E-03 2.047359943E-03
 -1.097174594E-03 2.081364393E-03
 -1.099595800E-03 2.115905285E-03
 -1.101970673E-03 2.151042223E-03
 -1.104391296E-03 2.186745405E-03
 -1.106758253E-03 2.223014832E-03
 -1.109174918E-03 2.259910107E-03
 -1.111536520E-03 2.297401428E-03
 -1.113947481E-03 2.335518599E-03
 -1.116302679E-03 2.374291420E-03
 -1.118705375E-03 2.413660288E-03
 -1.121048699E-03 2.453684807E-03
 -1.123442547E-03 2.494364977E-03
 -1.125773182E-03 2.535700798E-03
 -1.128157252E-03 2.577751875E-03
 -1.130475430E-03 2.620488405E-03
 -1.132846461E-03 2.663940191E-03
 -1.135148457E-03 2.708107233E-03
 -1.137501211E-03 2.752959728E-03
 -1.139783999E-03 2.798587084E-03
 -1.142119989E-03 2.844959497E-03
 -1.144382753E-03 2.892106771E-03
 -1.146698953E-03 2.940028906E-03
 -1.148938201E-03 2.988755703E-03
 -1.151230303E-03 3.038257360E-03
 -1.153443591E-03 3.088593483E-03
 -1.155709848E-03 3.139734268E-03
 -1.157893566E-03 3.191739321E-03
 -1.160132932E-03 3.244638443E-03
 -1.162284869E-03 3.298372030E-03
 -1.164490008E-03 3.352969885E-03
 -1.166607137E-03 3.408491611E-03
 -1.168777701E-03 3.464937210E-03
 -1.170857926E-03 3.522336483E-03
 -1.172988908E-03 3.580659628E-03
 -1.175027923E-03 3.639936447E-03
 -1.177116414E-03 3.700196743E-03
 -1.179111656E-03 3.761470318E-03
 -1.181154279E-03 3.823757172E-03
 -1.183101209E-03 3.887057304E-03
 -1.185093075E-03 3.951400518E-03
 -1.186987385E-03 4.016786814E-03
 -1.188925351E-03 4.083275795E-03
 -1.190765528E-03 4.150897264E-03
 -1.192645053E-03 4.219591618E-03
 -1.194424927E-03 4.289448261E-03
 -1.196242170E-03 4.360437393E-03
 -1.197956735E-03 4.432588816E-03
 -1.199707505E-03 4.505962133E-03
 -1.201354200E-03 4.580557346E-03
 -1.203032793E-03 4.656344652E-03
 -1.204606378E-03 4.733443260E-03
 -1.206208835E-03 4.811763763E-03
 -1.207703375E-03 4.891395569E-03
 -1.209224807E-03 4.972338676E-03
 -1.210635644E-03 5.054622889E-03
 -1.212070812E-03 5.138278008E-03
 -1.213393174E-03 5.223304033E-03
 -1.214736258E-03 5.309730768E-03
 -1.215964672E-03 5.397617817E-03
 -1.217210316E-03 5.486935377E-03
 -1.218338497E-03 5.577743053E-03
 -1.219480531E-03 5.670011044E-03
 -1.220503123E-03 5.763858557E-03
 -1.221536309E-03 5.859255791E-03
 -1.222446794E-03 5.956202745E-03
 -1.223364263E-03 6.054759026E-03
 -1.224156469E-03 6.154954433E-03
 -1.224951702E-03 6.256788969E-03
 -1.225619228E-03 6.360322237E-03
 -1.226286055E-03 6.465584040E-03
 -1.226821681E-03 6.572574377E-03
 -1.227352535E-03 6.681323051E-03
 -1.227749628E-03 6.791889668E-03
 -1.228137640E-03 6.904274225E-03
 -1.228388515E-03 7.018506527E-03
 -1.228626119E-03 7.134646177E-03
 -1.228723326E-03 7.252722979E-03
 -1.228802605E-03 7.372707129E-03
 -1.228738227E-03 7.494747639E-03
 -1.228651381E-03 7.618725300E-03
 -1.228417153E-03 7.744818926E-03
 -1.228155801E-03 7.872968912E-03
 -1.227743458E-03 8.003234863E-03
 -1.227298635E-03 8.135706186E-03
 -1.226699329E-03 8.270323277E-03
 -1.226062537E-03 8.407175541E-03
 -1.225266955E-03 8.546292782E-03
 -1.224428881E-03 8.687704802E-03
 -1.223427593E-03 8.831501007E-03
 -1.222378574E-03 8.977621794E-03
 -1.221162267E-03 9.126186371E-03
 -1.219891943E-03 9.277224541E-03
 -1.218450256E-03 9.430736303E-03
 -1.216948614E-03 9.586811066E-03
 -1.215270953E-03 9.745448828E-03
 -1.213527285E-03 9.906738997E-03
 -1.211602823E-03 1.007068157E-02
 -1.209606417E-03 1.023733616E-02
 -1.207423513E-03 1.040676236E-02
 -1.205162378E-03 1.057898998E-02
 -1.202709740E-03 1.075407863E-02
 -1.200172235E-03 1.093205810E-02
 -1.197437872E-03 1.111298800E-02
 -1.194611774E-03 1.129689813E-02
 -1.191582647E-03 1.148387790E-02
 -1.188455033E-03 1.167392731E-02
 -1.185118221E-03 1.186716557E-02
 -1.181675703E-03 1.206356287E-02
 -1.178018167E-03 1.226323843E-02
 -1.174247242E-03 1.246619225E-02
 -1.170254778E-03 1.267254353E-02
 -1.166140893E-03 1.288229227E-02
 -1.161799300E-03 1.309552789E-02
 -1.157328137E-03 1.331228018E-02
 -1.152621815E-03 1.353263855E-02
 -1.147777890E-03 1.375663280E-02
 -1.142692170E-03 1.398435235E-02
 -1.137460116E-03 1.421582699E-02
 -1.131978701E-03 1.445114613E-02
 -1.126341755E-03 1.469036937E-02
 -1.120448345E-03 1.493355632E-02
 -1.114391140E-03 1.518073678E-02
 -1.108067692E-03 1.543205976E-02
 -1.101570902E-03 1.568752527E-02
 -1.094801468E-03 1.594722271E-02
 -1.087847981E-03 1.621124148E-02
 -1.080613816E-03 1.647961140E-02
 -1.073186751E-03 1.675242186E-02
 -1.065468765E-03 1.702979207E-02
 -1.057548565E-03 1.731172204E-02
 -1.049328945E-03 1.759833097E-02
 -1.040895469E-03 1.788970828E-02
 -1.032154192E-03 1.818591356E-02
 -1.023190562E-03 1.848697662E-02
 -1.013908884E-03 1.879307628E-02
 -1.004392863E-03 1.910424232E-02
 -9.945506463E-04 1.942056417E-02
 -9.844632586E-04 1.974213123E-02
 -9.740408859E-04 2.006903291E-02
 -9.633635054E-04 2.040132880E-02
 -9.523421177E-04 2.073913813E-02
 -9.410539642E-04 2.108255029E-02
 -9.294128977E-04 2.143165469E-02
 -9.174938896E-04 2.178657055E-02
 -9.052152163E-04 2.214732766E-02
 -8.926480659E-04 2.251410484E-02
 -8.797134506E-04 2.288693190E-02
 -8.664820925E-04 2.326592803E-02
 -8.528743056E-04 2.365124226E-02
 -8.389599971E-04 2.404293418E-02
 -8.246645448E-04 2.444112301E-02
 -8.100553532E-04 2.484586835E-02
 -7.950589061E-04 2.525737882E-02
 -7.797409780E-04 2.567568421E-02
 -7.640354452E-04 2.610093355E-02
 -7.480017957E-04 2.653321624E-02
 -7.315790863E-04 2.697271109E-02
 -7.148252917E-04 2.741944790E-02
 -6.976860459E-04 2.787363529E-02
 -6.802136195E-04 2.833530307E-02
 -6.623623194E-04 2.880465984E-02
 -6.441790028E-04 2.928176522E-02
 -6.256284541E-04 2.976682782E-02
 -6.067514769E-04 3.025987744E-02
 -5.875245552E-04 3.076115251E-02
 -5.679795868E-04 3.127071261E-02
 -5.481103435E-04 3.178873658E-02
 -5.279378383E-04 3.231534362E-02
 -5.074747605E-04 3.285068274E-02
 -4.867306561E-04 3.339490294E-02
 -4.657391401E-04 3.394815326E-02
 -4.444994847E-04 3.451055288E-02
 -4.230671620E-04 3.508234024E-02
 -4.014307051E-04 3.566354513E-02
 -3.796746314E-04 3.625443578E-02
 -3.577687894E-04 3.685510159E-02
 -3.358355607E-04 3.746575117E-02
 -3.138254397E-04 3.808647394E-02
 -2.918998944E-04 3.871756792E-02
 -2.699899487E-04 3.935906291E-02
 -2.483072749E-04 4.001125693E-02
 -2.267544915E-04 4.067423940E-02
 -2.056056546E-04 4.134821892E-02
 -1.847289386E-04 4.203337431E-02
 -1.644679869E-04 4.272991419E-02
 -1.446561364E-04 4.343798757E-02
 -1.257172407E-04 4.415783286E-02
 -1.074395404E-04 4.488956928E-02
 -9.033900278E-05 4.563349485E-02
 -7.414577703E-05 4.638975859E-02
 -5.948209582E-05 4.715856910E-02
 -4.600248940E-05 4.794010520E-02
 -3.443796959E-05 4.873463511E-02
 -2.433484224E-05 4.954230785E-02
 -1.652330684E-05 5.036345124E-02
 -1.022647848E-05 5.119815469E-02
 -6.267062417E-06 5.204674602E-02
 -3.304986876E-06 5.290940404E-02
 -1.924204753E-06 5.378639698E-02
 -8.981219253E-07 5.467790365E-02
 -4.946485319E-07 5.558425188E-02
 -2.009937674E-07 5.650559068E-02
 -1.140143553E-07 5.744224787E-02
 -4.903030870E-08 5.839440227E-02
 -3.538920623E-08 5.936244130E-02
 -2.464435944E-08 6.034645438E-02
 -2.199993077E-08 6.134688854E-02
 -1.992446741E-08 6.236386299E-02
 -1.938393623E-08 6.339776516E-02
 -1.897557844E-08 6.444877386E-02
 -1.892338553E-08 6.551724672E-02
 -1.890176904E-08 6.660345197E-02
 -1.896500734E-08 6.770771742E-02
 -1.903500468E-08 6.883025169E-02
 -1.912374081E-08 6.997147202E-02
 -1.921387494E-08 7.113158703E-02
 -1.930725624E-08 7.231101394E-02
 -1.940077965E-08 7.350996137E-02
 -1.949418582E-08 7.472887635E-02
 -1.958731133E-08 7.596796751E-02
 -1.967969254E-08 7.722765207E-02
 -1.977152131E-08 7.850822806E-02
 -1.986257736E-08 7.981011271E-02
 -1.995281096E-08 8.113354445E-02
 -2.004236244E-08 8.247900009E-02
 -2.013080191E-08 8.384674788E-02
 -2.021866941E-08 8.523726463E-02
 -2.030511403E-08 8.665078878E-02
 -2.039110214E-08 8.808785677E-02
 -2.047533876E-08 8.954870701E-02
 -2.055924320E-08 9.103390574E-02
 -2.064104443E-08 9.254369140E-02
 -2.072263605E-08 9.407857060E-02
 -2.080175321E-08 9.563890100E-02
 -2.088079221E-08 9.722524881E-02
 -2.095696239E-08 9.883782268E-02
 -2.103318764E-08 1.004772484E-01
 -2.110614616E-08 1.021438241E-01
 -2.117930009E-08 1.038381457E-01
 -2.124876453E-08 1.055605412E-01
 -2.131856647E-08 1.073116064E-01
 -2.138424726E-08 1.090916991E-01
 -2.145042011E-08 1.109014153E-01
 -2.151202416E-08 1.127411127E-01
 -2.157427481E-08 1.146114469E-01
 -2.163150015E-08 1.165127158E-01
 -2.168953195E-08 1.184456944E-01
 -2.174207836E-08 1.204106808E-01
 -2.179559822E-08 1.224084198E-01
 -2.184316195E-08 1.244392097E-01
 -2.189186254E-08 1.265038252E-01
 -2.193413806E-08 1.286026835E-01
 -2.197772275E-08 1.307364702E-01
 -2.201440985E-08 1.329056025E-01
 -2.205257843E-08 1.351108551E-01
 -2.208337868E-08 1.373526454E-01
 -2.211583272E-08 1.396318078E-01
 -2.214044947E-08 1.419487000E-01
 -2.216689943E-08 1.443042159E-01
 -2.218504669E-08 1.466987729E-01
 -2.220520656E-08 1.491332054E-01
 -2.221660722E-08 1.516079307E-01
 -2.223019990E-08 1.541239023E-01
 -2.223458750E-08 1.566815376E-01
 -2.224134832E-08 1.592818499E-01
 -2.223846884E-08 1.619251370E-01
 -2.223814022E-08 1.646125913E-01
 -2.222775386E-08 1.673445106E-01
 -2.222009776E-08 1.701219678E-01
 -2.220198247E-08 1.729454398E-01
 -2.218677686E-08 1.758159995E-01
 -2.216072303E-08 1.787340641E-01
 -2.213775829E-08 1.817008257E-01
 -2.210358119E-08 1.847166419E-01
 -2.207267258E-08 1.877827644E-01
 -2.203020877E-08 1.908997297E-01
 -2.199118754E-08 1.940686107E-01
 -2.194029314E-08 1.972900629E-01
 -2.189301718E-08 2.005650997E-01
 -2.183357495E-08 2.038944960E-01
 -2.177792346E-08 2.072793841E-01
 -2.170984281E-08 2.107203007E-01
 -2.164572699E-08 2.142186761E-01
 -2.156893864E-08 2.177749276E-01
 -2.149628564E-08 2.213904858E-01
 -2.141075228E-08 2.250660062E-01
 -2.132952481E-08 2.288027406E-01
 -2.123523934E-08 2.326014638E-01
 -2.114542674E-08 2.364635468E-01
 -2.104241403E-08 2.403895259E-01
 -2.094403406E-08 2.443810701E-01
 -2.083233852E-08 2.484387159E-01
 -2.072544270E-08 2.525640130E-01
 -2.060514959E-08 2.567577362E-01
 -2.048981784E-08 2.610213161E-01
 -2.036104085E-08 2.653556466E-01
 -2.023738332E-08 2.697621584E-01
 -2.010026989E-08 2.742418051E-01
 -1.996842869E-08 2.787960768E-01
 -1.982315467E-08 2.834258676E-01
 -1.968330743E-08 2.881329060E-01
 -1.953008422E-08 2.929179072E-01
 -1.938242988E-08 2.977827787E-01
 -1.922149018E-08 3.027282357E-01
 -1.906627034E-08 3.077562451E-01
 -1.889788948E-08 3.128675222E-01
 -1.873536881E-08 3.180640936E-01
 -1.855983989E-08 3.233468533E-01
 -1.839030972E-08 3.287177086E-01
 -1.820796136E-08 3.341775537E-01
 -1.803174321E-08 3.397285342E-01
 -1.784292714E-08 3.453715444E-01
 -1.766037627E-08 3.511086106E-01
 -1.746547618E-08 3.569408655E-01
 -1.727696919E-08 3.628703952E-01
 -1.707639541E-08 3.688982725E-01
 -1.688233020E-08 3.750267029E-01
 -1.667650906E-08 3.812567592E-01
 -1.647731374E-08 3.875907063E-01
 -1.626669288E-08 3.940297365E-01
 -1.606279909E-08 4.005761743E-01
 -1.584784215E-08 4.072311521E-01
 -1.563970464E-08 4.139972329E-01
 -1.542088945E-08 4.208754301E-01
 -1.520898252E-08 4.278684855E-01
 -1.498679936E-08 4.349774122E-01
 -1.477160705E-08 4.422050714E-01
 -1.454655862E-08 4.495525360E-01
 -1.432857655E-08 4.570226073E-01
 -1.410117267E-08 4.646165967E-01
 -1.388089732E-08 4.723373055E-01
 -1.365165492E-08 4.801860452E-01
 -1.342959255E-08 4.881657958E-01
 -1.319902765E-08 4.962779284E-01
 -1.297568630E-08 5.045254230E-01
 -1.274431938E-08 5.129096508E-01
 -1.252019999E-08 5.214339495E-01
 -1.228853819E-08 5.300995708E-01
 -1.206414790E-08 5.389098525E-01
 -1.183270015E-08 5.478662252E-01
 -1.160852925E-08 5.569721460E-01
 -1.137778760E-08 5.662291050E-01
 -1.115432013E-08 5.756406188E-01
 -1.092477131E-08 5.852082372E-01
 -1.070247979E-08 5.949355960E-01
 -1.047459453E-08 6.048242450E-01
 -1.025393637E-08 6.148780584E-01
 -1.002816408E-08 6.250987053E-01
 -9.809580703E-09 6.354899406E-01
 -9.586359262E-09 6.460535526E-01
 -9.370271670E-09 6.567935944E-01
 -9.150014080E-09 6.677117348E-01
 -8.936823725E-09 6.788122654E-01
 -8.719919009E-09 6.900969744E-01
 -8.510009586E-09 7.015700340E-01
 -8.296826337E-09 7.132335901E-01
 -8.090551340E-09 7.250918150E-01
 -7.881436836E-09 7.371467352E-01
 -7.679130221E-09 7.494029999E-01
 -7.474396213E-09 7.618627548E-01
 -7.276362179E-09 7.745305300E-01
 -7.076303543E-09 7.874084711E-01
 -6.882822312E-09 8.005017042E-01
 -6.687723264E-09 8.138118982E-01
 -6.499035532E-09 8.273445368E-01
 -6.309138545E-09 8.411017656E-01
 -6.125459695E-09 8.550888300E-01
 -5.940973935E-09 8.693079948E-01
 -5.781473522E-09 8.822281361E-01
 -5.762514466E-09 8.837646246E-01
 -5.583621565E-09 8.984612226E-01
 -5.410535131E-09 9.134032726E-01
 -5.237416278E-09 9.285932779E-01
 -5.069860975E-09 9.440371990E-01
 -4.902643180E-09 9.597373009E-01
 -4.740756676E-09 9.756997824E-01
 -4.579541191E-09 9.919271469E-01
 -4.423433175E-09 1.008425713E+00
 -4.268298603E-09 1.025197983E+00
 -4.118057451E-09 1.042250633E+00
 -3.969059748E-09 1.059586167E+00
 -3.824750294E-09 1.077211618E+00
 -3.681924543E-09 1.095129371E+00
 -3.543591642E-09 1.113346815E+00
 -3.406951388E-09 1.131866455E+00
 -3.274619687E-09 1.150695682E+00
 -3.144161598E-09 1.169837356E+00
 -3.017833983E-09 1.189299107E+00
 -2.893535189E-09 1.209083796E+00
 -2.773197227E-09 1.229199290E+00
 -2.655018871E-09 1.249648571E+00
 -2.540640587E-09 1.270439625E+00
 -2.428527157E-09 1.291575909E+00
 -2.320058368E-09 1.313065529E+00
 -2.213938810E-09 1.334911942E+00
 -2.111316677E-09 1.357123494E+00
 -2.011106837E-09 1.379703879E+00
 -1.914252534E-09 1.402661681E+00
 -1.819854378E-09 1.426000476E+00
 -1.728674426E-09 1.449729681E+00
 -1.639974712E-09 1.473852873E+00
 -1.554363305E-09 1.498379350E+00
 -1.471239242E-09 1.523313046E+00
 -1.391077142E-09 1.548663616E+00
 -1.313392617E-09 1.574435115E+00
 -1.238547376E-09 1.600637674E+00
 -1.166155728E-09 1.627274990E+00
 -1.096483682E-09 1.654358149E+00
 -1.029225150E-09 1.681890965E+00
 -9.645718668E-10 1.709883928E+00
 -9.022784742E-10 1.738342047E+00
 -8.424764220E-10 1.767276049E+00
 -7.849696448E-10 1.796690464E+00
 -7.298426863E-10 1.826596737E+00
 -6.769335648E-10 1.856999874E+00
 -6.262938501E-10 1.887911558E+00
 -5.777854861E-10 1.919336319E+00
 -5.314371165E-10 1.951287031E+00
 -4.871231196E-10 1.983768225E+00
 -4.448612867E-10 2.016792774E+00
 -4.045285495E-10 2.050365925E+00
 -3.661402015E-10 2.084500551E+00
 -3.295688722E-10 2.119202375E+00
 -2.948343514E-10 2.154484510E+00
 -2.617992767E-10 2.190352678E+00
 -2.304930413E-10 2.226821184E+00
 -2.007636696E-10 2.263895512E+00
 -1.726560561E-10 2.301589727E+00
 -1.459993099E-10 2.339910507E+00
 -1.208567413E-10 2.378872156E+00
 -9.703733650E-11 2.418481350E+00
 -7.462438306E-11 2.458753347E+00
 -5.340609205E-11 2.499694347E+00
 -3.348689034E-11 2.541320086E+00
 -1.463388438E-11 2.583637953E+00
 3.027216065E-12 2.626663685E+00
 1.974901839E-11 2.670404434E+00
 3.538619744E-11 2.714876890E+00
 5.020945812E-11 2.760088682E+00
 6.405586478E-11 2.806056976E+00
 7.720730999E-11 2.852789164E+00
 8.948608521E-11 2.900303364E+00
 1.012023312E-10 2.948607445E+00
 1.121687396E-10 2.997719765E+00
 1.226419938E-10 3.047648430E+00
 1.324247656E-10 3.098412752E+00
 1.419888651E-10 3.150020838E+00
 1.511496622E-10 3.202492714E+00
 1.596187488E-10 3.255836725E+00
 1.671714017E-10 3.310073614E+00
 1.756410573E-10 3.365211964E+00
 1.849338044E-10 3.421273708E+00
 1.788733051E-10 3.478267193E+00
 1.561824559E-10 3.536214828E+00
 0.000000000E+00 3.595125675E+00
ZONE T="CFL3D, Slc: X=0.688"
 0.000000000E+00 0.000000000E+00
 0.000000000E+00 2.890825272E-06
 0.000000000E+00 5.811452866E-06
 0.000000000E+00 8.732080460E-06
 0.000000000E+00 1.165270805E-05
 0.000000000E+00 1.457333565E-05
 0.000000000E+00 1.752376556E-05
 -2.108356024E-11 2.044439316E-05
 -5.988293889E-11 2.339482307E-05
 -3.699150708E-10 2.634525299E-05
 -8.884627478E-10 2.929568291E-05
 -2.780261799E-09 3.224611282E-05
 -5.682593063E-09 3.522634506E-05
 -1.333379451E-08 3.820657730E-05
 -2.397448107E-08 4.118680954E-05
 -4.788650543E-08 4.419684410E-05
 -7.936728252E-08 4.720687866E-05
 -1.429701371E-07 5.024671555E-05
 -2.220528899E-07 5.328655243E-05
 -3.710271415E-07 5.635619164E-05
 -5.466740731E-07 5.942583084E-05
 -8.595573604E-07 6.249547005E-05
 -1.218401167E-06 6.562471390E-05
 -1.843456289E-06 6.875395775E-05
 -2.516001359E-06 7.188320160E-05
 -3.674467507E-06 7.504224777E-05
 -4.884410828E-06 7.823109627E-05
 -6.933727036E-06 8.144974709E-05
 -9.047375897E-06 8.466839790E-05
 -1.241745667E-05 8.791685104E-05
 -1.598066410E-05 9.119510651E-05
 -2.134005808E-05 9.450316429E-05
 -2.710935769E-05 9.784102440E-05
 -3.533493873E-05 1.012086868E-04
 -4.428435204E-05 1.045763493E-04
 -5.620193406E-05 1.079738140E-04
 -6.962619227E-05 1.114308834E-04
 -8.644211630E-05 1.148879528E-04
 -1.056023029E-04 1.184046268E-04
 -1.287808846E-04 1.219511032E-04
 -1.548147411E-04 1.254975796E-04
 -1.852222049E-04 1.291036606E-04
 -2.195059205E-04 1.327395439E-04
 -2.580986766E-04 1.364350319E-04
 -3.011768276E-04 1.401603222E-04
 -3.473561374E-04 1.438856125E-04
 -3.990294645E-04 1.477003098E-04
 -4.528708814E-04 1.515150070E-04
 -5.116945249E-04 1.553893089E-04
 -5.722151254E-04 1.593232155E-04
 -6.371840718E-04 1.632869244E-04
 -7.024595980E-04 1.672804356E-04
 -7.708313060E-04 1.713335514E-04
 -8.393691969E-04 1.754462719E-04
 -9.092094260E-04 1.795887947E-04
 -9.786338778E-04 1.837909222E-04
 -1.048153383E-03 1.880228519E-04
 -1.116733183E-03 1.923143864E-04
 -1.185231376E-03 1.966655254E-04
 -1.252137241E-03 2.010762691E-04
 -1.318563824E-03 2.055466175E-04
 -1.382497489E-03 2.100467682E-04
 -1.446424401E-03 2.146363258E-04
 -1.507397392E-03 2.192556858E-04
 -1.568103908E-03 2.239346504E-04
 -1.626585145E-03 2.287030220E-04
 -1.685116440E-03 2.335309982E-04
 -1.740602776E-03 2.383887768E-04
 -1.796745812E-03 2.433359623E-04
 -1.849878812E-03 2.483427525E-04
 -1.903666416E-03 2.534389496E-04
 -1.954864245E-03 2.585649490E-04
 -2.006785711E-03 2.638101578E-04
 -2.056667348E-03 2.690851688E-04
 -2.106685657E-03 2.744495869E-04
 -2.155761933E-03 2.799034119E-04
 -2.204471035E-03 2.854168415E-04
 -2.252534963E-03 2.910196781E-04
 -2.300123917E-03 2.966821194E-04
 -2.347391797E-03 3.024339676E-04
 -2.394294366E-03 3.082752228E-04
 -2.441062592E-03 3.142058849E-04
 -2.487169346E-03 3.201961517E-04
 -2.533583203E-03 3.263056278E-04
 -2.579299500E-03 3.324747086E-04
 -2.625480061E-03 3.387629986E-04
 -2.670858288E-03 3.451108932E-04
 -2.716793679E-03 3.515779972E-04
 -2.762116492E-03 3.581345081E-04
 -2.808080288E-03 3.648102283E-04
 -2.853059676E-03 3.715455532E-04
 -2.898704959E-03 3.784000874E-04
 -2.943973057E-03 3.853738308E-04
 -2.989735221E-03 3.924369812E-04
 -3.034980502E-03 3.996193409E-04
 -3.080641152E-03 4.068911076E-04
 -3.125851275E-03 4.142820835E-04
 -3.171569435E-03 4.217922688E-04
 -3.217030782E-03 4.294216633E-04
 -3.262722166E-03 4.371404648E-04
 -3.308339510E-03 4.450082779E-04
 -3.354236018E-03 4.529953003E-04
 -3.399833106E-03 4.611015320E-04
 -3.445537761E-03 4.692971706E-04
 -3.491282929E-03 4.776418209E-04
 -3.537304234E-03 4.861354828E-04
 -3.583111335E-03 4.947483540E-04
 -3.629105398E-03 5.035102367E-04
 -3.674920648E-03 5.123913288E-04
 -3.720866749E-03 5.214214325E-04
 -3.766830778E-03 5.306005478E-04
 -3.812854644E-03 5.399286747E-04
 -3.858926240E-03 5.494058132E-04
 -3.904695855E-03 5.590021610E-04
 -3.950609360E-03 5.687773228E-04
 -3.996349405E-03 5.787014961E-04
 -4.042134155E-03 5.887746811E-04
 -4.087797832E-03 5.990266800E-04
 -4.133539740E-03 6.094276905E-04
 -4.178896081E-03 6.200075150E-04
 -4.224368837E-03 6.307363510E-04
 -4.269464873E-03 6.416738033E-04
 -4.314798862E-03 6.527602673E-04
 -4.359362181E-03 6.640255451E-04
 -4.404421896E-03 6.754696369E-04
 -4.448437598E-03 6.870925426E-04
 -4.493161570E-03 6.989240646E-04
 -4.536574241E-03 7.109344006E-04
 -4.580624867E-03 7.231235504E-04
 -4.623515531E-03 7.355511189E-04
 -4.666951019E-03 7.481276989E-04
 -4.709005356E-03 7.609426975E-04
 -4.751838744E-03 7.739663124E-04
 -4.793029744E-03 7.871985435E-04
 -4.834995605E-03 8.006393909E-04
 -4.875090439E-03 8.142888546E-04
 -4.916030448E-03 8.281767368E-04
 -4.955138545E-03 8.422732353E-04
 -4.994946532E-03 8.566081524E-04
 -5.032833200E-03 8.711814880E-04
 -5.071341526E-03 8.859932423E-04
 -5.107918754E-03 9.010434151E-04
 -5.144998431E-03 9.163320065E-04
 -5.180155393E-03 9.318888187E-04
 -5.215670448E-03 9.476840496E-04
 -5.249158014E-03 9.637475014E-04
 -5.282960832E-03 9.800791740E-04
 -5.314693321E-03 9.966790676E-04
 -5.346565507E-03 1.013517380E-03
 -5.376438145E-03 1.030683517E-03
 -5.406281911E-03 1.048088074E-03
 -5.433983635E-03 1.065790653E-03
 -5.461650435E-03 1.083791256E-03
 -5.487145390E-03 1.102089882E-03
 -5.512448493E-03 1.120686531E-03
 -5.535533652E-03 1.139581203E-03
 -5.558320321E-03 1.158803701E-03
 -5.578856915E-03 1.178324223E-03
 -5.598938093E-03 1.198172569E-03
 -5.616773386E-03 1.218348742E-03
 -5.633997731E-03 1.238852739E-03
 -5.648972932E-03 1.259714365E-03
 -5.663205869E-03 1.280903816E-03
 -5.675180349E-03 1.302450895E-03
 -5.686264019E-03 1.324325800E-03
 -5.695095751E-03 1.346588135E-03
 -5.702920724E-03 1.369208097E-03
 -5.708494689E-03 1.392215490E-03
 -5.712938495E-03 1.415610313E-03
 -5.715142936E-03 1.439362764E-03
 -5.716094282E-03 1.463532448E-03
 -5.714838393E-03 1.488089561E-03
 -5.712214392E-03 1.513063908E-03
 -5.707427394E-03 1.538425684E-03
 -5.701162387E-03 1.564234495E-03
 -5.692867562E-03 1.590460539E-03
 -5.682850257E-03 1.617103815E-03
 -5.671004299E-03 1.644194126E-03
 -5.657209083E-03 1.671761274E-03
 -5.641795695E-03 1.699775457E-03
 -5.624264944E-03 1.728236675E-03
 -5.605306942E-03 1.757174730E-03
 -5.584086291E-03 1.786589622E-03
 -5.561603699E-03 1.816511154E-03
 -5.536747631E-03 1.846939325E-03
 -5.510831717E-03 1.877844334E-03
 -5.482516252E-03 1.909255981E-03
 -5.453248508E-03 1.941204071E-03
 -5.421549082E-03 1.973688602E-03
 -5.389030091E-03 2.006709576E-03
 -5.354185123E-03 2.040266991E-03
 -5.318607669E-03 2.074390650E-03
 -5.280803889E-03 2.109080553E-03
 -5.242339801E-03 2.144336700E-03
 -5.201811437E-03 2.180188894E-03
 -5.160614848E-03 2.216637135E-03
 -5.117663648E-03 2.253681421E-03
 -5.074009299E-03 2.291351557E-03
 -5.028869957E-03 2.329647541E-03
 -4.983021412E-03 2.368569374E-03
 -4.936016630E-03 2.408146858E-03
 -4.888253286E-03 2.448379993E-03
 -4.839627538E-03 2.489298582E-03
 -4.790227860E-03 2.530872822E-03
 -4.740338307E-03 2.573162317E-03
 -4.689616617E-03 2.616137266E-03
 -4.638763145E-03 2.659827471E-03
 -4.586985335E-03 2.704262733E-03
 -4.535450600E-03 2.749413252E-03
 -4.482935648E-03 2.795338631E-03
 -4.431003705E-03 2.842009068E-03
 -4.378068261E-03 2.889454365E-03
 -4.325994290E-03 2.937704325E-03
 -4.272866528E-03 2.986758947E-03
 -4.220928997E-03 3.036618233E-03
 -4.167888314E-03 3.087311983E-03
 -4.116266966E-03 3.138870001E-03
 -4.063535016E-03 3.191262484E-03
 -4.012499470E-03 3.244519234E-03
 -3.960284870E-03 3.298670053E-03
 -3.909943625E-03 3.353714943E-03
 -3.858405864E-03 3.409683704E-03
 -3.808894660E-03 3.466606140E-03
 -3.758205334E-03 3.524452448E-03
 -3.709635930E-03 3.583282232E-03
 -3.659889102E-03 3.643095493E-03
 -3.612326691E-03 3.703892231E-03
 -3.563660430E-03 3.765672445E-03
 -3.517154371E-03 3.828525543E-03
 -3.469573334E-03 3.892421722E-03
 -3.424174385E-03 3.957360983E-03
 -3.377733054E-03 4.023402929E-03
 -3.333408386E-03 4.090547562E-03
 -3.288120031E-03 4.158794880E-03
 -3.244889900E-03 4.228174686E-03
 -3.200738691E-03 4.298716784E-03
 -3.158564912E-03 4.370450974E-03
 -3.115528962E-03 4.443377256E-03