# CFL3D results for NASA wall-mounted hump, 817 x 217 grid, no plenum, k-kL-MEAH2015 model
VARIABLES = "x/c","y/c","u/Uref"
ZONE T="x/c=-2.14"
 -2.140000105E+00 7.713619561E-05 9.735069424E-02
 -2.140000105E+00 1.361542847E-03 5.188686848E-01
 -2.140000105E+00 2.645949367E-03 5.892373323E-01
 -2.140000105E+00 3.930355888E-03 6.299768686E-01
 -2.140000105E+00 5.214762874E-03 6.594647765E-01
 -2.140000105E+00 6.499169394E-03 6.829723716E-01
 -2.140000105E+00 7.783575915E-03 7.027440071E-01
 -2.140000105E+00 9.067982435E-03 7.199202180E-01
 -2.140000105E+00 1.035238896E-02 7.352446914E-01
 -2.140000105E+00 1.163679548E-02 7.491449714E-01
 -2.140000105E+00 1.292120293E-02 7.619376779E-01
 -2.140000105E+00 1.420560945E-02 7.738150954E-01
 -2.140000105E+00 1.549001597E-02 7.849320769E-01
 -2.140000105E+00 1.677442156E-02 7.954189777E-01
 -2.140000105E+00 1.805882901E-02 8.053275943E-01
 -2.140000105E+00 1.934323646E-02 8.147633672E-01
 -2.140000105E+00 2.062764205E-02 8.237845302E-01
 -2.140000105E+00 2.191204950E-02 8.324020505E-01
 -2.140000105E+00 2.319645509E-02 8.406803012E-01
 -2.140000105E+00 2.448086254E-02 8.486593366E-01
 -2.140000105E+00 2.576526813E-02 8.563343287E-01
 -2.140000105E+00 2.704967558E-02 8.637354970E-01
 -2.140000105E+00 2.833408304E-02 8.708946705E-01
 -2.140000105E+00 2.961848862E-02 8.778254986E-01
 -2.140000105E+00 3.090289608E-02 8.845410347E-01
 -2.140000105E+00 3.218730167E-02 8.910537362E-01
 -2.140000105E+00 3.347170725E-02 8.973754048E-01
 -2.140000105E+00 3.475611657E-02 9.035176635E-01
 -2.140000105E+00 3.604052216E-02 9.094915390E-01
 -2.140000105E+00 3.732492775E-02 9.152672887E-01
 -2.140000105E+00 3.860933334E-02 9.208821058E-01
 -2.140000105E+00 3.989374265E-02 9.263486862E-01
 -2.140000105E+00 4.117814824E-02 9.316768646E-01
 -2.140000105E+00 4.246255383E-02 9.368396997E-01
 -2.140000105E+00 4.374696314E-02 9.418269992E-01
 -2.140000105E+00 4.503136873E-02 9.466915131E-01
 -2.140000105E+00 4.631577432E-02 9.514176250E-01
 -2.140000105E+00 4.760017991E-02 9.559373856E-01
 -2.140000105E+00 4.888458923E-02 9.603502750E-01
 -2.140000105E+00 5.016899481E-02 9.645861983E-01
 -2.140000105E+00 5.145340040E-02 9.686359167E-01
 -2.140000105E+00 5.273780972E-02 9.725919962E-01
 -2.140000105E+00 5.402221531E-02 9.762451053E-01
 -2.140000105E+00 5.530662090E-02 9.798189998E-01
 -2.140000105E+00 5.659102648E-02 9.830797911E-01
 -2.140000105E+00 5.787543580E-02 9.861794114E-01
 -2.140000105E+00 5.915984139E-02 9.889228940E-01
 -2.140000105E+00 6.044424698E-02 9.913701415E-01
 -2.140000105E+00 6.172865629E-02 9.933126569E-01
 -2.140000105E+00 6.301306188E-02 9.949132800E-01
 -2.140000105E+00 6.429746747E-02 9.958611727E-01
 -2.140000105E+00 6.558187306E-02 9.966458678E-01
 -2.140000105E+00 6.686627865E-02 9.968837500E-01
 -2.140000105E+00 6.815068424E-02 9.971162081E-01
 -2.140000105E+00 6.943509728E-02 9.971286654E-01
 -2.140000105E+00 7.071950287E-02 9.971410632E-01
 -2.140000105E+00 7.200390846E-02 9.971434474E-01
 -2.140000105E+00 7.328831404E-02 9.971418977E-01
 -2.140000105E+00 7.457271963E-02 9.971414208E-01
 -2.140000105E+00 7.585712522E-02 9.971430302E-01
 -2.140000105E+00 7.714153081E-02 9.971446395E-01
 -2.140000105E+00 7.842594385E-02 9.971462488E-01
 -2.140000105E+00 7.971034944E-02 9.971478581E-01
 -2.140000105E+00 8.099475503E-02 9.971494079E-01
 -2.140000105E+00 8.227916062E-02 9.971509576E-01
 -2.140000105E+00 8.356356621E-02 9.971525073E-01
 -2.140000105E+00 8.484797180E-02 9.971540570E-01
 -2.140000105E+00 8.613237739E-02 9.971556067E-01
 -2.140000105E+00 8.741679043E-02 9.971571565E-01
 -2.140000105E+00 8.870119601E-02 9.971587062E-01
 -2.140000105E+00 8.998560160E-02 9.971602559E-01
 -2.140000105E+00 9.127000719E-02 9.971617460E-01
 -2.140000105E+00 9.255441278E-02 9.971632361E-01
 -2.140000105E+00 9.383881837E-02 9.971647263E-01
 -2.140000105E+00 9.512322396E-02 9.971661568E-01
 -2.140000105E+00 9.640763700E-02 9.971676469E-01
 -2.140000105E+00 9.769204259E-02 9.971690774E-01
 -2.140000105E+00 9.897644818E-02 9.971705675E-01
 -2.140000105E+00 1.002608538E-01 9.971719980E-01
 -2.140000105E+00 1.015452594E-01 9.971734285E-01
 -2.140000105E+00 1.028296649E-01 9.971748590E-01
 -2.140000105E+00 1.041140705E-01 9.971762896E-01
 -2.140000105E+00 1.053984836E-01 9.971777201E-01
 -2.140000105E+00 1.066828892E-01 9.971790910E-01
 -2.140000105E+00 1.079672948E-01 9.971805215E-01
 -2.140000105E+00 1.092517003E-01 9.971818924E-01
 -2.140000105E+00 1.105361059E-01 9.971832037E-01
 -2.140000105E+00 1.118205115E-01 9.971845746E-01
 -2.140000105E+00 1.131049171E-01 9.971859455E-01
 -2.140000105E+00 1.143893301E-01 9.971872568E-01
 -2.140000105E+00 1.156737357E-01 9.971886277E-01
 -2.140000105E+00 1.169581413E-01 9.971899986E-01
 -2.140000105E+00 1.182425469E-01 9.971913099E-01
 -2.140000105E+00 1.195269525E-01 9.971926212E-01
 -2.140000105E+00 1.208113581E-01 9.971939325E-01
 -2.140000105E+00 1.220957637E-01 9.971952438E-01
 -2.140000105E+00 1.233801767E-01 9.971965551E-01
 -2.140000105E+00 1.246645823E-01 9.971978068E-01
 -2.140000105E+00 1.259489805E-01 9.971990585E-01
 -2.140000105E+00 1.272333860E-01 9.972003698E-01
 -2.140000105E+00 1.285178065E-01 9.972016215E-01
 -2.140000105E+00 1.298022121E-01 9.972028732E-01
 -2.140000105E+00 1.310866177E-01 9.972040653E-01
 -2.140000105E+00 1.323710233E-01 9.972053170E-01
 -2.140000105E+00 1.336554289E-01 9.972065687E-01
 -2.140000105E+00 1.349398345E-01 9.972077608E-01
 -2.140000105E+00 1.362242401E-01 9.972089529E-01
 -2.140000105E+00 1.375086457E-01 9.972101450E-01
 -2.140000105E+00 1.387930512E-01 9.972113371E-01
 -2.140000105E+00 1.400774568E-01 9.972125292E-01
 -2.140000105E+00 1.413618624E-01 9.972137213E-01
 -2.140000105E+00 1.426462680E-01 9.972149134E-01
 -2.140000105E+00 1.439306736E-01 9.972160459E-01
 -2.140000105E+00 1.452150792E-01 9.972172379E-01
 -2.140000105E+00 1.464994997E-01 9.972183704E-01
 -2.140000105E+00 1.477839053E-01 9.972195029E-01
 -2.140000105E+00 1.490683109E-01 9.972206354E-01
 -2.140000105E+00 1.503527164E-01 9.972217679E-01
 -2.140000105E+00 1.516371220E-01 9.972229004E-01
 -2.140000105E+00 1.529215276E-01 9.972239733E-01
 -2.140000105E+00 1.542059332E-01 9.972251058E-01
 -2.140000105E+00 1.554903388E-01 9.972261786E-01
 -2.140000105E+00 1.567747444E-01 9.972273111E-01
 -2.140000105E+00 1.580591500E-01 9.972283840E-01
 -2.140000105E+00 1.593435556E-01 9.972295165E-01
 -2.140000105E+00 1.606279612E-01 9.972305894E-01
 -2.140000105E+00 1.619123667E-01 9.972316623E-01
 -2.140000105E+00 1.631967723E-01 9.972327352E-01
 -2.140000105E+00 1.644811779E-01 9.972338080E-01
 -2.140000105E+00 1.657655984E-01 9.972348809E-01
 -2.140000105E+00 1.670500040E-01 9.972358942E-01
 -2.140000105E+00 1.683344096E-01 9.972369075E-01
 -2.140000105E+00 1.696188152E-01 9.972379208E-01
 -2.140000105E+00 1.709032208E-01 9.972389340E-01
 -2.140000105E+00 1.721876264E-01 9.972399473E-01
 -2.140000105E+00 1.734720320E-01 9.972410202E-01
 -2.140000105E+00 1.747564375E-01 9.972419739E-01
 -2.140000105E+00 1.760408431E-01 9.972429872E-01
 -2.140000105E+00 1.773252487E-01 9.972439408E-01
 -2.140000105E+00 1.786096543E-01 9.972449541E-01
 -2.140000105E+00 1.798940599E-01 9.972459078E-01
 -2.140000105E+00 1.811784655E-01 9.972469211E-01
 -2.140000105E+00 1.824628711E-01 9.972478747E-01
 -2.140000105E+00 1.837472916E-01 9.972488284E-01
 -2.140000105E+00 1.850316972E-01 9.972497821E-01
 -2.140000105E+00 1.863161027E-01 9.972507358E-01
 -2.140000105E+00 1.876005083E-01 9.972516894E-01
 -2.140000105E+00 1.888849139E-01 9.972526431E-01
 -2.140000105E+00 1.901693195E-01 9.972535372E-01
 -2.140000105E+00 1.914537251E-01 9.972544312E-01
 -2.140000105E+00 1.927381307E-01 9.972553849E-01
 -2.140000105E+00 1.940225363E-01 9.972562790E-01
 -2.140000105E+00 1.953069419E-01 9.972571731E-01
 -2.140000105E+00 1.965913475E-01 9.972580671E-01
 -2.140000105E+00 1.978757530E-01 9.972589612E-01
 -2.140000105E+00 1.991601586E-01 9.972598553E-01
 -2.140000105E+00 2.004445642E-01 9.972606897E-01
 -2.140000105E+00 2.017289847E-01 9.972615838E-01
 -2.140000105E+00 2.030133903E-01 9.972624779E-01
 -2.140000105E+00 2.042977959E-01 9.972633719E-01
 -2.140000105E+00 2.055822015E-01 9.972642064E-01
 -2.140000105E+00 2.068666071E-01 9.972650409E-01
 -2.140000105E+00 2.081510127E-01 9.972658753E-01
 -2.140000105E+00 2.094354182E-01 9.972667098E-01
 -2.140000105E+00 2.107198238E-01 9.972675443E-01
 -2.140000105E+00 2.120042294E-01 9.972683787E-01
 -2.140000105E+00 2.132886350E-01 9.972692132E-01
 -2.140000105E+00 2.145730406E-01 9.972700477E-01
 -2.140000105E+00 2.158574462E-01 9.972708821E-01
 -2.140000105E+00 2.171418518E-01 9.972716570E-01
 -2.140000105E+00 2.184262574E-01 9.972724915E-01
 -2.140000105E+00 2.197106779E-01 9.972732663E-01
 -2.140000105E+00 2.209950835E-01 9.972741008E-01
 -2.140000105E+00 2.222794890E-01 9.972748756E-01
 -2.140000105E+00 2.235638946E-01 9.972757101E-01
 -2.140000105E+00 2.248483002E-01 9.972764850E-01
 -2.140000105E+00 2.261327058E-01 9.972772002E-01
 -2.140000105E+00 2.274171114E-01 9.972779751E-01
 -2.140000105E+00 2.287015170E-01 9.972787499E-01
 -2.140000105E+00 2.299859226E-01 9.972794652E-01
 -2.140000105E+00 2.312703282E-01 9.972802401E-01
 -2.140000105E+00 2.325547338E-01 9.972810149E-01
 -2.140000105E+00 2.338391393E-01 9.972817302E-01
 -2.140000105E+00 2.351235449E-01 9.972825050E-01
 -2.140000105E+00 2.364079505E-01 9.972832203E-01
 -2.140000105E+00 2.376923561E-01 9.972839355E-01
 -2.140000105E+00 2.389767766E-01 9.972846508E-01
 -2.140000105E+00 2.402611822E-01 9.972853661E-01
 -2.140000105E+00 2.415455878E-01 9.972860813E-01
 -2.140000105E+00 2.428299934E-01 9.972868562E-01
 -2.140000105E+00 2.441143990E-01 9.972875118E-01
 -2.140000105E+00 2.453988045E-01 9.972882271E-01
 -2.140000105E+00 2.466832101E-01 9.972889423E-01
 -2.140000105E+00 2.479676157E-01 9.972895980E-01
 -2.140000105E+00 2.492520213E-01 9.972903132E-01
 -2.140000105E+00 2.505364418E-01 9.972909689E-01
 -2.140000105E+00 2.518208325E-01 9.972916842E-01
 -2.140000105E+00 2.531052530E-01 9.972923398E-01
 -2.140000105E+00 2.543896437E-01 9.972930551E-01
 -2.140000105E+00 2.556740642E-01 9.972937107E-01
 -2.140000105E+00 2.569584548E-01 9.972943664E-01
 -2.140000105E+00 2.582428753E-01 9.972950220E-01
 -2.140000105E+00 2.595272660E-01 9.972956777E-01
 -2.140000105E+00 2.608116865E-01 9.972962737E-01
 -2.140000105E+00 2.620960772E-01 9.972969294E-01
 -2.140000105E+00 2.633804977E-01 9.972975850E-01
 -2.140000105E+00 2.646648884E-01 9.972982407E-01
 -2.140000105E+00 2.659493089E-01 9.972988963E-01
 -2.140000105E+00 2.672337294E-01 9.972994924E-01
 -2.140000105E+00 2.685181201E-01 9.973001480E-01
 -2.140000105E+00 2.698025405E-01 9.973007441E-01
 -2.140000105E+00 2.710869312E-01 9.973013401E-01
 -2.140000105E+00 2.723713517E-01 9.973019958E-01
 -2.140000105E+00 2.736557424E-01 9.973025918E-01
 -2.140000105E+00 2.749401629E-01 9.973032475E-01
 -2.140000105E+00 2.762245536E-01 9.973038435E-01
 -2.140000105E+00 2.775089741E-01 9.973044395E-01
 -2.140000105E+00 2.787933648E-01 9.973050356E-01
 -2.140000105E+00 2.800777853E-01 9.973055720E-01
 -2.140000105E+00 2.813621759E-01 9.973061681E-01
 -2.140000105E+00 2.826465964E-01 9.973067641E-01
 -2.140000105E+00 2.839310169E-01 9.973073602E-01
 -2.140000105E+00 2.852154076E-01 9.973078966E-01
 -2.140000105E+00 2.864998281E-01 9.973084927E-01
 -2.140000105E+00 2.877842188E-01 9.973090887E-01
 -2.140000105E+00 2.890686393E-01 9.973096251E-01
 -2.140000105E+00 2.903530300E-01 9.973102212E-01
 -2.140000105E+00 2.916374505E-01 9.973107576E-01
 -2.140000105E+00 2.929218411E-01 9.973112941E-01
 -2.140000105E+00 2.942062616E-01 9.973118305E-01
 -2.140000105E+00 2.954906523E-01 9.973123670E-01
 -2.140000105E+00 2.967750728E-01 9.973129034E-01
 -2.140000105E+00 2.980594635E-01 9.973134398E-01
 -2.140000105E+00 2.993438840E-01 9.973139763E-01
 -2.140000105E+00 3.006282747E-01 9.973145127E-01
 -2.140000105E+00 3.019126952E-01 9.973150492E-01
 -2.140000105E+00 3.031971157E-01 9.973155856E-01
 -2.140000105E+00 3.044815063E-01 9.973160625E-01
 -2.140000105E+00 3.057659268E-01 9.973165989E-01
 -2.140000105E+00 3.070503175E-01 9.973171353E-01
 -2.140000105E+00 3.083347380E-01 9.973176122E-01
 -2.140000105E+00 3.096191287E-01 9.973181486E-01
 -2.140000105E+00 3.109035492E-01 9.973186255E-01
 -2.140000105E+00 3.121879399E-01 9.973191619E-01
 -2.140000105E+00 3.134723604E-01 9.973196387E-01
 -2.140000105E+00 3.147567511E-01 9.973201752E-01
 -2.140000105E+00 3.160411716E-01 9.973206520E-01
 -2.140000105E+00 3.173255622E-01 9.973211288E-01
 -2.140000105E+00 3.186099827E-01 9.973216057E-01
 -2.140000105E+00 3.198943734E-01 9.973220825E-01
 -2.140000105E+00 3.211787939E-01 9.973225594E-01
 -2.140000105E+00 3.224632144E-01 9.973230362E-01
 -2.140000105E+00 3.237476051E-01 9.973235130E-01
 -2.140000105E+00 3.250320256E-01 9.973239899E-01
 -2.140000105E+00 3.263164163E-01 9.973244667E-01
 -2.140000105E+00 3.276008368E-01 9.973249435E-01
 -2.140000105E+00 3.288852274E-01 9.973253608E-01
 -2.140000105E+00 3.301696479E-01 9.973258376E-01
 -2.140000105E+00 3.314540386E-01 9.973262548E-01
 -2.140000105E+00 3.327384591E-01 9.973267317E-01
 -2.140000105E+00 3.340228498E-01 9.973271489E-01
 -2.140000105E+00 3.353072703E-01 9.973276258E-01
 -2.140000105E+00 3.365916610E-01 9.973280430E-01
 -2.140000105E+00 3.378760815E-01 9.973285198E-01
 -2.140000105E+00 3.391605020E-01 9.973289371E-01
 -2.140000105E+00 3.404448926E-01 9.973294139E-01
 -2.140000105E+00 3.417293131E-01 9.973298311E-01
 -2.140000105E+00 3.430137038E-01 9.973302484E-01
 -2.140000105E+00 3.442981243E-01 9.973306656E-01
 -2.140000105E+00 3.455825150E-01 9.973310828E-01
 -2.140000105E+00 3.468669355E-01 9.973314404E-01
 -2.140000105E+00 3.481513262E-01 9.973318577E-01
 -2.140000105E+00 3.494357467E-01 9.973322749E-01
 -2.140000105E+00 3.507201374E-01 9.973326921E-01
 -2.140000105E+00 3.520045578E-01 9.973330498E-01
 -2.140000105E+00 3.532889485E-01 9.973334670E-01
 -2.140000105E+00 3.545733690E-01 9.973338842E-01
 -2.140000105E+00 3.558577597E-01 9.973343015E-01
 -2.140000105E+00 3.571421802E-01 9.973346591E-01
 -2.140000105E+00 3.584266007E-01 9.973350763E-01
 -2.140000105E+00 3.597109914E-01 9.973354340E-01
 -2.140000105E+00 3.609954119E-01 9.973358512E-01
 -2.140000105E+00 3.622798026E-01 9.973362088E-01
 -2.140000105E+00 3.635642231E-01 9.973366261E-01
 -2.140000105E+00 3.648486137E-01 9.973369837E-01
 -2.140000105E+00 3.661330342E-01 9.973374009E-01
 -2.140000105E+00 3.674174249E-01 9.973377585E-01
 -2.140000105E+00 3.687018454E-01 9.973381758E-01
 -2.140000105E+00 3.699862361E-01 9.973385334E-01
 -2.140000105E+00 3.712706566E-01 9.973389506E-01
 -2.140000105E+00 3.725550473E-01 9.973393083E-01
 -2.140000105E+00 3.738394678E-01 9.973396659E-01
 -2.140000105E+00 3.751238585E-01 9.973400235E-01
 -2.140000105E+00 3.764082789E-01 9.973403811E-01
 -2.140000105E+00 3.776926994E-01 9.973407388E-01
 -2.140000105E+00 3.789770901E-01 9.973410368E-01
 -2.140000105E+00 3.802615106E-01 9.973413944E-01
 -2.140000105E+00 3.815459013E-01 9.973417521E-01
 -2.140000105E+00 3.828303218E-01 9.973421097E-01
 -2.140000105E+00 3.841147125E-01 9.973424673E-01
ZONE T="x/c=0.65"
 6.499999762E-01 1.161499992E-01 4.743212368E-03
 6.499999762E-01 1.161757037E-01 2.769994736E-02
 6.499999762E-01 1.161819994E-01 3.353840113E-02
 6.499999762E-01 1.161884964E-01 3.963088989E-02
 6.499999762E-01 1.161950976E-01 4.589492455E-02
 6.499999762E-01 1.162016988E-01 5.219591036E-02
 6.499999762E-01 1.162085012E-01 5.870503187E-02
 6.499999762E-01 1.162153035E-01 6.521433592E-02
 6.499999762E-01 1.162222996E-01 7.188393921E-02
 6.499999762E-01 1.162293032E-01 7.853388786E-02
 6.499999762E-01 1.162365004E-01 8.531448245E-02
 6.499999762E-01 1.162438020E-01 9.212268144E-02
 6.499999762E-01 1.162512973E-01 9.903548658E-02
 6.499999762E-01 1.162588969E-01 1.059341505E-01
 6.499999762E-01 1.162666976E-01 1.129137576E-01
 6.499999762E-01 1.162746996E-01 1.199592426E-01
 6.499999762E-01 1.162827983E-01 1.269751489E-01
 6.499999762E-01 1.162912026E-01 1.341267824E-01
 6.499999762E-01 1.162997037E-01 1.412155330E-01
 6.499999762E-01 1.163085029E-01 1.483956128E-01
 6.499999762E-01 1.163175032E-01 1.555525512E-01
 6.499999762E-01 1.163268983E-01 1.628345400E-01
 6.499999762E-01 1.163363978E-01 1.700063944E-01
 6.499999762E-01 1.163462996E-01 1.772855669E-01
 6.499999762E-01 1.163564995E-01 1.845661551E-01
 6.499999762E-01 1.163669974E-01 1.918389499E-01
 6.499999762E-01 1.163778976E-01 1.991684139E-01
 6.499999762E-01 1.163891032E-01 2.064710855E-01
 6.499999762E-01 1.164008006E-01 2.138636261E-01
 6.499999762E-01 1.164128035E-01 2.212023437E-01
 6.499999762E-01 1.164252982E-01 2.285820544E-01
 6.499999762E-01 1.164382026E-01 2.359349877E-01
 6.499999762E-01 1.164515987E-01 2.432910949E-01
 6.499999762E-01 1.164655015E-01 2.506308854E-01
 6.499999762E-01 1.164799035E-01 2.579556108E-01
 6.499999762E-01 1.164949015E-01 2.652883232E-01
 6.499999762E-01 1.165105030E-01 2.726177275E-01
 6.499999762E-01 1.165267006E-01 2.799205184E-01
 6.499999762E-01 1.165435016E-01 2.871894240E-01
 6.499999762E-01 1.165610030E-01 2.944514453E-01
 6.499999762E-01 1.165791005E-01 3.016514778E-01
 6.499999762E-01 1.165980995E-01 3.088974655E-01
 6.499999762E-01 1.166177019E-01 3.160611987E-01
 6.499999762E-01 1.166381985E-01 3.232381344E-01
 6.499999762E-01 1.166594997E-01 3.303855658E-01
 6.499999762E-01 1.166817024E-01 3.375260532E-01
 6.499999762E-01 1.167049035E-01 3.446798623E-01
 6.499999762E-01 1.167289019E-01 3.517777622E-01
 6.499999762E-01 1.167540029E-01 3.589020967E-01
 6.499999762E-01 1.167801023E-01 3.660137653E-01
 6.499999762E-01 1.168072969E-01 3.731290400E-01
 6.499999762E-01 1.168356985E-01 3.802812099E-01
 6.499999762E-01 1.168652996E-01 3.874578476E-01
 6.499999762E-01 1.168961003E-01 3.946549594E-01
 6.499999762E-01 1.169281974E-01 4.018889666E-01
 6.499999762E-01 1.169617027E-01 4.091787338E-01
 6.499999762E-01 1.169964969E-01 4.164917171E-01
 6.499999762E-01 1.170329005E-01 4.238926470E-01
 6.499999762E-01 1.170708016E-01 4.313490391E-01
 6.499999762E-01 1.171104014E-01 4.388949275E-01
 6.499999762E-01 1.171516031E-01 4.465041161E-01
 6.499999762E-01 1.171946004E-01 4.542046785E-01
 6.499999762E-01 1.172394976E-01 4.620074928E-01
 6.499999762E-01 1.172861978E-01 4.698882699E-01
 6.499999762E-01 1.173349991E-01 4.778887630E-01
 6.499999762E-01 1.173857972E-01 4.859810472E-01
 6.499999762E-01 1.174388975E-01 4.942033589E-01
 6.499999762E-01 1.174942032E-01 5.025312304E-01
 6.499999762E-01 1.175519004E-01 5.109812617E-01
 6.499999762E-01 1.176121011E-01 5.195573568E-01
 6.499999762E-01 1.176747978E-01 5.282467008E-01
 6.499999762E-01 1.177403033E-01 5.370793343E-01
 6.499999762E-01 1.178086028E-01 5.460392237E-01
 6.499999762E-01 1.178798974E-01 5.551386476E-01
 6.499999762E-01 1.179542020E-01 5.643659830E-01
 6.499999762E-01 1.180317029E-01 5.737281442E-01
 6.499999762E-01 1.181124970E-01 5.832232833E-01
 6.499999762E-01 1.181968972E-01 5.928704739E-01
 6.499999762E-01 1.182847992E-01 6.026413441E-01
 6.499999762E-01 1.183765978E-01 6.125633717E-01
 6.499999762E-01 1.184723973E-01 6.226285696E-01
 6.499999762E-01 1.185721979E-01 6.328197122E-01
 6.499999762E-01 1.186764017E-01 6.431587338E-01
 6.499999762E-01 1.187850013E-01 6.536262035E-01
 6.499999762E-01 1.188983992E-01 6.642405987E-01
 6.499999762E-01 1.190166026E-01 6.749826670E-01
 6.499999762E-01 1.191399992E-01 6.858665347E-01
 6.499999762E-01 1.192686036E-01 6.968715787E-01
 6.499999762E-01 1.194028035E-01 7.080102563E-01
 6.499999762E-01 1.195427999E-01 7.192760706E-01
 6.499999762E-01 1.196888983E-01 7.306707501E-01
 6.499999762E-01 1.198412031E-01 7.421777248E-01
 6.499999762E-01 1.200001016E-01 7.538027167E-01
 6.499999762E-01 1.201658994E-01 7.655405402E-01
 6.499999762E-01 1.203389019E-01 7.773846984E-01
 6.499999762E-01 1.205193028E-01 7.893188596E-01
 6.499999762E-01 1.207074970E-01 8.013367057E-01
 6.499999762E-01 1.209039018E-01 8.134303689E-01
 6.499999762E-01 1.211087033E-01 8.255726695E-01
 6.499999762E-01 1.213224977E-01 8.377552629E-01
 6.499999762E-01 1.215455011E-01 8.499432802E-01
 6.499999762E-01 1.217781976E-01 8.621131778E-01
 6.499999762E-01 1.220211014E-01 8.742331862E-01
 6.499999762E-01 1.222745031E-01 8.862509727E-01
 6.499999762E-01 1.225389019E-01 8.981152177E-01
 6.499999762E-01 1.228149012E-01 9.097676873E-01
 6.499999762E-01 1.231029034E-01 9.211307764E-01
 6.499999762E-01 1.234034970E-01 9.321253896E-01
 6.499999762E-01 1.237171963E-01 9.426643252E-01
 6.499999762E-01 1.240447015E-01 9.526692629E-01
 6.499999762E-01 1.243864968E-01 9.620659351E-01
 6.499999762E-01 1.247432977E-01 9.708095789E-01
 6.499999762E-01 1.251157969E-01 9.788837433E-01
 6.499999762E-01 1.255044937E-01 9.862996340E-01
 6.499999762E-01 1.259101927E-01 9.931033850E-01
 6.499999762E-01 1.263336986E-01 9.993606210E-01
 6.499999762E-01 1.267755926E-01 1.005143046E+00
 6.499999762E-01 1.272369027E-01 1.010530949E+00
 6.499999762E-01 1.277181953E-01 1.015593052E+00
 6.499999762E-01 1.282204986E-01 1.020396113E+00
 6.499999762E-01 1.287447959E-01 1.024996519E+00
 6.499999762E-01 1.292918026E-01 1.029439330E+00
 6.499999762E-01 1.298626065E-01 1.033764839E+00
 6.499999762E-01 1.304582059E-01 1.038006306E+00
 6.499999762E-01 1.310797036E-01 1.042190313E+00
 6.499999762E-01 1.317282021E-01 1.046339631E+00
 6.499999762E-01 1.324048936E-01 1.050473094E+00
 6.499999762E-01 1.331108958E-01 1.054605484E+00
 6.499999762E-01 1.338475943E-01 1.058750510E+00
 6.499999762E-01 1.346161962E-01 1.062917829E+00
 6.499999762E-01 1.354182065E-01 1.067116857E+00
 6.499999762E-01 1.362549067E-01 1.071353555E+00
 6.499999762E-01 1.371279955E-01 1.075635076E+00
 6.499999762E-01 1.380387992E-01 1.079965830E+00
 6.499999762E-01 1.389891952E-01 1.084351182E+00
 6.499999762E-01 1.399807930E-01 1.088794351E+00
 6.499999762E-01 1.410153955E-01 1.093298554E+00
 6.499999762E-01 1.420948058E-01 1.097866058E+00
 6.499999762E-01 1.432210058E-01 1.102498889E+00
 6.499999762E-01 1.443960965E-01 1.107198715E+00
 6.499999762E-01 1.456221044E-01 1.111965537E+00
 6.499999762E-01 1.469012052E-01 1.116799712E+00
 6.499999762E-01 1.482359022E-01 1.121701121E+00
 6.499999762E-01 1.496284008E-01 1.126667857E+00
 6.499999762E-01 1.510812938E-01 1.131698608E+00
 6.499999762E-01 1.525972933E-01 1.136790037E+00
 6.499999762E-01 1.541790068E-01 1.141938448E+00
 6.499999762E-01 1.558292955E-01 1.147138953E+00
 6.499999762E-01 1.575511992E-01 1.152385950E+00
 6.499999762E-01 1.593476981E-01 1.157671690E+00
 6.499999762E-01 1.612222940E-01 1.162988305E+00
 6.499999762E-01 1.631781012E-01 1.168324113E+00
 6.499999762E-01 1.652188003E-01 1.173666239E+00
 6.499999762E-01 1.673479974E-01 1.178998232E+00
 6.499999762E-01 1.695697010E-01 1.184300900E+00
 6.499999762E-01 1.718876958E-01 1.189548612E+00
 6.499999762E-01 1.743061990E-01 1.194709897E+00
 6.499999762E-01 1.768296957E-01 1.199744463E+00
 6.499999762E-01 1.794627011E-01 1.204599619E+00
 6.499999762E-01 1.822099984E-01 1.209206343E+00
 6.499999762E-01 1.850764006E-01 1.213474035E+00
 6.499999762E-01 1.880671978E-01 1.217286348E+00
 6.499999762E-01 1.911877990E-01 1.220503926E+00
 6.499999762E-01 1.944438070E-01 1.222985268E+00
 6.499999762E-01 1.978410035E-01 1.224631429E+00
 6.499999762E-01 2.013857067E-01 1.225435138E+00
 6.499999762E-01 2.050842047E-01 1.225498438E+00
 6.499999762E-01 2.089432031E-01 1.225000978E+00
 6.499999762E-01 2.129696012E-01 1.224131584E+00
 6.499999762E-01 2.171707004E-01 1.223032951E+00
 6.499999762E-01 2.215541005E-01 1.221799254E+00
 6.499999762E-01 2.261276990E-01 1.220502615E+00
 6.499999762E-01 2.308997959E-01 1.219196320E+00
 6.499999762E-01 2.358788997E-01 1.217899561E+00
 6.499999762E-01 2.410741001E-01 1.216599584E+00
 6.499999762E-01 2.464946955E-01 1.215271950E+00
 6.499999762E-01 2.521505058E-01 1.213897109E+00
 6.499999762E-01 2.580518126E-01 1.212465048E+00
 6.499999762E-01 2.642090023E-01 1.210971236E+00
 6.499999762E-01 2.706334889E-01 1.209413767E+00
 6.499999762E-01 2.773366868E-01 1.207791924E+00
 6.499999762E-01 2.843307853E-01 1.206105113E+00
 6.499999762E-01 2.916283906E-01 1.204353571E+00
 6.499999762E-01 2.992425859E-01 1.202538252E+00
 6.499999762E-01 3.071871996E-01 1.200660348E+00
 6.499999762E-01 3.154765964E-01 1.198721647E+00
 6.499999762E-01 3.241255879E-01 1.196723938E+00
 6.499999762E-01 3.331499100E-01 1.194669962E+00
 6.499999762E-01 3.425656855E-01 1.192562103E+00
 6.499999762E-01 3.523901999E-01 1.190403581E+00
 6.499999762E-01 3.626408875E-01 1.188197970E+00
 6.499999762E-01 3.733364046E-01 1.185949326E+00
 6.499999762E-01 3.844959140E-01 1.183661819E+00
 6.499999762E-01 3.961397111E-01 1.181340218E+00
 6.499999762E-01 4.082886875E-01 1.178989887E+00
 6.499999762E-01 4.209648073E-01 1.176616430E+00
 6.499999762E-01 4.341908991E-01 1.174225569E+00
 6.499999762E-01 4.479908943E-01 1.171824217E+00
 6.499999762E-01 4.623895884E-01 1.169418931E+00
 6.499999762E-01 4.774130881E-01 1.167016745E+00
 6.499999762E-01 4.930885136E-01 1.164625406E+00
 6.499999762E-01 5.094438791E-01 1.162252665E+00
 6.499999762E-01 5.265089869E-01 1.159906626E+00
 6.499999762E-01 5.443145037E-01 1.157595277E+00
 6.499999762E-01 5.628924966E-01 1.155327082E+00
 6.499999762E-01 5.822765231E-01 1.153110266E+00
 6.499999762E-01 6.025015712E-01 1.150953531E+00
 6.499999762E-01 6.236041188E-01 1.148865342E+00
 6.499999762E-01 6.456223130E-01 1.146855235E+00
 6.499999762E-01 6.685956120E-01 1.144928575E+00
 6.499999762E-01 6.925656796E-01 1.143088341E+00
 6.499999762E-01 7.175757289E-01 1.141310573E+00
 6.499999762E-01 7.436707020E-01 1.139606118E+00
 6.499999762E-01 7.708979249E-01 1.138087034E+00
 6.499999762E-01 7.993062735E-01 1.137250066E+00
 6.499999762E-01 8.289471269E-01 1.136584401E+00
 6.499999762E-01 8.598734736E-01 1.132404447E+00
 6.499999762E-01 8.921396732E-01 1.128749847E+00
ZONE T="x/c=0.8"
 8.000000119E-01 2.460199967E-02 -1.906758262E-04
 8.000000119E-01 2.461059950E-02 -1.373989158E-03
 8.000000119E-01 2.461968921E-02 -2.630844247E-03
 8.000000119E-01 2.462900989E-02 -3.920977470E-03
 8.000000119E-01 2.463857085E-02 -5.245781038E-03
 8.000000119E-01 2.464839071E-02 -6.608326919E-03
 8.000000119E-01 2.465848066E-02 -8.006424643E-03
 8.000000119E-01 2.466885932E-02 -9.438429959E-03
 8.000000119E-01 2.467953973E-02 -1.090152562E-02
 8.000000119E-01 2.469055913E-02 -1.239509322E-02
 8.000000119E-01 2.470193058E-02 -1.392582245E-02
 8.000000119E-01 2.471365966E-02 -1.548369136E-02
 8.000000119E-01 2.472578920E-02 -1.707059331E-02
 8.000000119E-01 2.473831922E-02 -1.867922023E-02
 8.000000119E-01 2.475129999E-02 -2.031811886E-02
 8.000000119E-01 2.476472966E-02 -2.197827771E-02
 8.000000119E-01 2.477863990E-02 -2.365415357E-02
 8.000000119E-01 2.479306050E-02 -2.534687147E-02
 8.000000119E-01 2.480801009E-02 -2.706149034E-02
 8.000000119E-01 2.482352033E-02 -2.878167853E-02
 8.000000119E-01 2.483961917E-02 -3.051107936E-02
 8.000000119E-01 2.485634014E-02 -3.224955872E-02
 8.000000119E-01 2.487370931E-02 -3.399885073E-02
 8.000000119E-01 2.489176020E-02 -3.574428335E-02
 8.000000119E-01 2.491050959E-02 -3.748657927E-02
 8.000000119E-01 2.493002079E-02 -3.923064843E-02
 8.000000119E-01 2.495029941E-02 -4.097617418E-02
 8.000000119E-01 2.497139946E-02 -4.271074012E-02
 8.000000119E-01 2.499335073E-02 -4.443537816E-02
 8.000000119E-01 2.501620911E-02 -4.615257308E-02
 8.000000119E-01 2.503998950E-02 -4.786095768E-02
 8.000000119E-01 2.506476082E-02 -4.956112429E-02
 8.000000119E-01 2.509054914E-02 -5.124073103E-02
 8.000000119E-01 2.511741035E-02 -5.290319398E-02
 8.000000119E-01 2.514538914E-02 -5.454840139E-02
 8.000000119E-01 2.517453954E-02 -5.617664754E-02
 8.000000119E-01 2.520490997E-02 -5.778547749E-02
 8.000000119E-01 2.523656003E-02 -5.937612057E-02
 8.000000119E-01 2.526954003E-02 -6.093898043E-02
 8.000000119E-01 2.530392073E-02 -6.247512251E-02
 8.000000119E-01 2.533975057E-02 -6.398459524E-02
 8.000000119E-01 2.537710033E-02 -6.546877325E-02
 8.000000119E-01 2.541604079E-02 -6.692688912E-02
 8.000000119E-01 2.545664087E-02 -6.835821271E-02
 8.000000119E-01 2.549898066E-02 -6.976199150E-02
 8.000000119E-01 2.554311045E-02 -7.113777101E-02
 8.000000119E-01 2.558914013E-02 -7.248502225E-02
 8.000000119E-01 2.563714050E-02 -7.379819453E-02
 8.000000119E-01 2.568719909E-02 -7.508410513E-02
 8.000000119E-01 2.573939972E-02 -7.634287328E-02
 8.000000119E-01 2.579385042E-02 -7.757548988E-02
 8.000000119E-01 2.585064061E-02 -7.878305018E-02
 8.000000119E-01 2.590987086E-02 -7.996649295E-02
 8.000000119E-01 2.597164921E-02 -8.112725616E-02
 8.000000119E-01 2.603610046E-02 -8.226669580E-02
 8.000000119E-01 2.610331960E-02 -8.338631690E-02
 8.000000119E-01 2.617345005E-02 -8.448770642E-02
 8.000000119E-01 2.624659985E-02 -8.557236940E-02
 8.000000119E-01 2.632291056E-02 -8.664195985E-02
 8.000000119E-01 2.640252002E-02 -8.769764751E-02
 8.000000119E-01 2.648556978E-02 -8.873798698E-02
 8.000000119E-01 2.657221071E-02 -8.976679295E-02
 8.000000119E-01 2.666259930E-02 -9.078538418E-02
 8.000000119E-01 2.675689943E-02 -9.179366380E-02
 8.000000119E-01 2.685528994E-02 -9.279259294E-02
 8.000000119E-01 2.695792913E-02 -9.378176928E-02
 8.000000119E-01 2.706502005E-02 -9.476129711E-02
 8.000000119E-01 2.717675082E-02 -9.573077410E-02
 8.000000119E-01 2.729333006E-02 -9.669003636E-02
 8.000000119E-01 2.741494961E-02 -9.763812274E-02
 8.000000119E-01 2.754184976E-02 -9.857439250E-02
 8.000000119E-01 2.767425030E-02 -9.949806333E-02
 8.000000119E-01 2.781240083E-02 -1.004080921E-01
 8.000000119E-01 2.795653977E-02 -1.013034210E-01
 8.000000119E-01 2.810692973E-02 -1.021832749E-01
 8.000000119E-01 2.826385014E-02 -1.030466929E-01
 8.000000119E-01 2.842758037E-02 -1.038927808E-01
 8.000000119E-01 2.859842032E-02 -1.047204882E-01
 8.000000119E-01 2.877667919E-02 -1.055287495E-01
 8.000000119E-01 2.896266989E-02 -1.063166410E-01
 8.000000119E-01 2.915675007E-02 -1.070830300E-01
 8.000000119E-01 2.935924940E-02 -1.078265980E-01