# CFL3D results for NASA wall-mounted hump, fine grid from CFDVAL2004, k-kL-MEAH2015 model
VARIABLES = "x/c","y/c","u/Uref"
ZONE T="x/c=-2.14"
 -2.140000105E+00 7.713619561E-05 9.727106988E-02
 -2.140000105E+00 1.361542847E-03 5.190408230E-01
 -2.140000105E+00 2.645949367E-03 5.894873142E-01
 -2.140000105E+00 3.930355888E-03 6.302559972E-01
 -2.140000105E+00 5.214762874E-03 6.597533226E-01
 -2.140000105E+00 6.499169394E-03 6.832597256E-01
 -2.140000105E+00 7.783575915E-03 7.030229568E-01
 -2.140000105E+00 9.067982435E-03 7.201849818E-01
 -2.140000105E+00 1.035238896E-02 7.354912162E-01
 -2.140000105E+00 1.163679548E-02 7.493692636E-01
 -2.140000105E+00 1.292120293E-02 7.621374726E-01
 -2.140000105E+00 1.420560945E-02 7.739883065E-01
 -2.140000105E+00 1.549001597E-02 7.850780487E-01
 -2.140000105E+00 1.677442156E-02 7.955371737E-01
 -2.140000105E+00 1.805882901E-02 8.054181337E-01
 -2.140000105E+00 1.934323646E-02 8.148257732E-01
 -2.140000105E+00 2.062764205E-02 8.238191605E-01
 -2.140000105E+00 2.191204950E-02 8.324086666E-01
 -2.140000105E+00 2.319645509E-02 8.406594992E-01
 -2.140000105E+00 2.448086254E-02 8.486112356E-01
 -2.140000105E+00 2.576526813E-02 8.562589288E-01
 -2.140000105E+00 2.704967558E-02 8.636335135E-01
 -2.140000105E+00 2.833408304E-02 8.707664013E-01
 -2.140000105E+00 2.961848862E-02 8.776713014E-01
 -2.140000105E+00 3.090289608E-02 8.843613863E-01
 -2.140000105E+00 3.218730167E-02 8.908489347E-01
 -2.140000105E+00 3.347170725E-02 8.971459270E-01
 -2.140000105E+00 3.475611657E-02 9.032640457E-01
 -2.140000105E+00 3.604052216E-02 9.092141390E-01
 -2.140000105E+00 3.732492775E-02 9.149672985E-01
 -2.140000105E+00 3.860933334E-02 9.205595255E-01
 -2.140000105E+00 3.989374265E-02 9.260039330E-01
 -2.140000105E+00 4.117814824E-02 9.313105345E-01
 -2.140000105E+00 4.246255383E-02 9.364530444E-01
 -2.140000105E+00 4.374696314E-02 9.414201975E-01
 -2.140000105E+00 4.503136873E-02 9.462651014E-01
 -2.140000105E+00 4.631577432E-02 9.509729147E-01
 -2.140000105E+00 4.760017991E-02 9.554750323E-01
 -2.140000105E+00 4.888458923E-02 9.598708749E-01
 -2.140000105E+00 5.016899481E-02 9.640916586E-01
 -2.140000105E+00 5.145340040E-02 9.681265950E-01
 -2.140000105E+00 5.273780972E-02 9.720695615E-01
 -2.140000105E+00 5.402221531E-02 9.757103920E-01
 -2.140000105E+00 5.530662090E-02 9.792720675E-01
 -2.140000105E+00 5.659102648E-02 9.825226068E-01
 -2.140000105E+00 5.787543580E-02 9.856126308E-01
 -2.140000105E+00 5.915984139E-02 9.883536100E-01
 -2.140000105E+00 6.044424698E-02 9.908132553E-01
 -2.140000105E+00 6.172865629E-02 9.928004742E-01
 -2.140000105E+00 6.301306188E-02 9.944632649E-01
 -2.140000105E+00 6.429746747E-02 9.955165386E-01
 -2.140000105E+00 6.558187306E-02 9.963985682E-01
 -2.140000105E+00 6.686627865E-02 9.967180490E-01
 -2.140000105E+00 6.815068424E-02 9.970294237E-01
 -2.140000105E+00 6.943509728E-02 9.970560670E-01
 -2.140000105E+00 7.071950287E-02 9.970826507E-01
 -2.140000105E+00 7.200390846E-02 9.970854521E-01
 -2.140000105E+00 7.328831404E-02 9.970791340E-01
 -2.140000105E+00 7.457271963E-02 9.970754981E-01
 -2.140000105E+00 7.585712522E-02 9.970772266E-01
 -2.140000105E+00 7.714153081E-02 9.970789552E-01
 -2.140000105E+00 7.842594385E-02 9.970812798E-01
 -2.140000105E+00 7.971034944E-02 9.970837831E-01
 -2.140000105E+00 8.099475503E-02 9.970861673E-01
 -2.140000105E+00 8.227916062E-02 9.970884323E-01
 -2.140000105E+00 8.356356621E-02 9.970906377E-01
 -2.140000105E+00 8.484797180E-02 9.970927238E-01
 -2.140000105E+00 8.613237739E-02 9.970948696E-01
 -2.140000105E+00 8.741679043E-02 9.970969558E-01
 -2.140000105E+00 8.870119601E-02 9.970989823E-01
 -2.140000105E+00 8.998560160E-02 9.971010685E-01
 -2.140000105E+00 9.127000719E-02 9.971031547E-01
 -2.140000105E+00 9.255441278E-02 9.971051812E-01
 -2.140000105E+00 9.383881837E-02 9.971071482E-01
 -2.140000105E+00 9.512322396E-02 9.971091747E-01
 -2.140000105E+00 9.640763700E-02 9.971112013E-01
 -2.140000105E+00 9.769204259E-02 9.971131086E-01
 -2.140000105E+00 9.897644818E-02 9.971150756E-01
 -2.140000105E+00 1.002608538E-01 9.971171021E-01
 -2.140000105E+00 1.015452594E-01 9.971189499E-01
 -2.140000105E+00 1.028296649E-01 9.971208572E-01
 -2.140000105E+00 1.041140705E-01 9.971228242E-01
 -2.140000105E+00 1.053984836E-01 9.971246719E-01
 -2.140000105E+00 1.066828892E-01 9.971266389E-01
 -2.140000105E+00 1.079672948E-01 9.971284866E-01
 -2.140000105E+00 1.092517003E-01 9.971303344E-01
 -2.140000105E+00 1.105361059E-01 9.971321225E-01
 -2.140000105E+00 1.118205115E-01 9.971339703E-01
 -2.140000105E+00 1.131049171E-01 9.971357584E-01
 -2.140000105E+00 1.143893301E-01 9.971375465E-01
 -2.140000105E+00 1.156737357E-01 9.971393347E-01
 -2.140000105E+00 1.169581413E-01 9.971410632E-01
 -2.140000105E+00 1.182425469E-01 9.971428514E-01
 -2.140000105E+00 1.195269525E-01 9.971445799E-01
 -2.140000105E+00 1.208113581E-01 9.971463084E-01
 -2.140000105E+00 1.220957637E-01 9.971480370E-01
 -2.140000105E+00 1.233801767E-01 9.971498251E-01
 -2.140000105E+00 1.246645823E-01 9.971514344E-01
 -2.140000105E+00 1.259489805E-01 9.971530437E-01
 -2.140000105E+00 1.272333860E-01 9.971547723E-01
 -2.140000105E+00 1.285178065E-01 9.971564412E-01
 -2.140000105E+00 1.298022121E-01 9.971580505E-01
 -2.140000105E+00 1.310866177E-01 9.971597195E-01
 -2.140000105E+00 1.323710233E-01 9.971612692E-01
 -2.140000105E+00 1.336554289E-01 9.971629381E-01
 -2.140000105E+00 1.349398345E-01 9.971645474E-01
 -2.140000105E+00 1.362242401E-01 9.971660972E-01
 -2.140000105E+00 1.375086457E-01 9.971677065E-01
 -2.140000105E+00 1.387930512E-01 9.971692562E-01
 -2.140000105E+00 1.400774568E-01 9.971708059E-01
 -2.140000105E+00 1.413618624E-01 9.971723557E-01
 -2.140000105E+00 1.426462680E-01 9.971738458E-01
 -2.140000105E+00 1.439306736E-01 9.971754551E-01
 -2.140000105E+00 1.452150792E-01 9.971768856E-01
 -2.140000105E+00 1.464994997E-01 9.971784949E-01
 -2.140000105E+00 1.477839053E-01 9.971798658E-01
 -2.140000105E+00 1.490683109E-01 9.971814156E-01
 -2.140000105E+00 1.503527164E-01 9.971828461E-01
 -2.140000105E+00 1.516371220E-01 9.971842766E-01
 -2.140000105E+00 1.529215276E-01 9.971857667E-01
 -2.140000105E+00 1.542059332E-01 9.971871376E-01
 -2.140000105E+00 1.554903388E-01 9.971885681E-01
 -2.140000105E+00 1.567747444E-01 9.971899390E-01
 -2.140000105E+00 1.580591500E-01 9.971913695E-01
 -2.140000105E+00 1.593435556E-01 9.971928000E-01
 -2.140000105E+00 1.606279612E-01 9.971941113E-01
 -2.140000105E+00 1.619123667E-01 9.971954823E-01
 -2.140000105E+00 1.631967723E-01 9.971967936E-01
 -2.140000105E+00 1.644811779E-01 9.971981645E-01
 -2.140000105E+00 1.657655984E-01 9.971995354E-01
 -2.140000105E+00 1.670500040E-01 9.972008467E-01
 -2.140000105E+00 1.683344096E-01 9.972021580E-01
 -2.140000105E+00 1.696188152E-01 9.972034693E-01
 -2.140000105E+00 1.709032208E-01 9.972047210E-01
 -2.140000105E+00 1.721876264E-01 9.972059727E-01
 -2.140000105E+00 1.734720320E-01 9.972072840E-01
 -2.140000105E+00 1.747564375E-01 9.972084761E-01
 -2.140000105E+00 1.760408431E-01 9.972097874E-01
 -2.140000105E+00 1.773252487E-01 9.972109795E-01
 -2.140000105E+00 1.786096543E-01 9.972122312E-01
 -2.140000105E+00 1.798940599E-01 9.972134233E-01
 -2.140000105E+00 1.811784655E-01 9.972146749E-01
 -2.140000105E+00 1.824628711E-01 9.972158670E-01
 -2.140000105E+00 1.837472916E-01 9.972170591E-01
 -2.140000105E+00 1.850316972E-01 9.972181916E-01
 -2.140000105E+00 1.863161027E-01 9.972193837E-01
 -2.140000105E+00 1.876005083E-01 9.972205758E-01
 -2.140000105E+00 1.888849139E-01 9.972217679E-01
 -2.140000105E+00 1.901693195E-01 9.972229004E-01
 -2.140000105E+00 1.914537251E-01 9.972239733E-01
 -2.140000105E+00 1.927381307E-01 9.972251058E-01
 -2.140000105E+00 1.940225363E-01 9.972262383E-01
 -2.140000105E+00 1.953069419E-01 9.972273707E-01
 -2.140000105E+00 1.965913475E-01 9.972285032E-01
 -2.140000105E+00 1.978757530E-01 9.972295761E-01
 -2.140000105E+00 1.991601586E-01 9.972306490E-01
 -2.140000105E+00 2.004445642E-01 9.972316623E-01
 -2.140000105E+00 2.017289847E-01 9.972327352E-01
 -2.140000105E+00 2.030133903E-01 9.972337484E-01
 -2.140000105E+00 2.042977959E-01 9.972348213E-01
 -2.140000105E+00 2.055822015E-01 9.972358346E-01
 -2.140000105E+00 2.068666071E-01 9.972369075E-01
 -2.140000105E+00 2.081510127E-01 9.972379208E-01
 -2.140000105E+00 2.094354182E-01 9.972388744E-01
 -2.140000105E+00 2.107198238E-01 9.972399473E-01
 -2.140000105E+00 2.120042294E-01 9.972409010E-01
 -2.140000105E+00 2.132886350E-01 9.972419739E-01
 -2.140000105E+00 2.145730406E-01 9.972429276E-01
 -2.140000105E+00 2.158574462E-01 9.972438812E-01
 -2.140000105E+00 2.171418518E-01 9.972447753E-01
 -2.140000105E+00 2.184262574E-01 9.972457886E-01
 -2.140000105E+00 2.197106779E-01 9.972466230E-01
 -2.140000105E+00 2.209950835E-01 9.972476363E-01
 -2.140000105E+00 2.222794890E-01 9.972485304E-01
 -2.140000105E+00 2.235638946E-01 9.972494841E-01
 -2.140000105E+00 2.248483002E-01 9.972503781E-01
 -2.140000105E+00 2.261327058E-01 9.972512722E-01
 -2.140000105E+00 2.274171114E-01 9.972521663E-01
 -2.140000105E+00 2.287015170E-01 9.972530603E-01
 -2.140000105E+00 2.299859226E-01 9.972539544E-01
 -2.140000105E+00 2.312703282E-01 9.972548485E-01
 -2.140000105E+00 2.325547338E-01 9.972556829E-01
 -2.140000105E+00 2.338391393E-01 9.972565770E-01
 -2.140000105E+00 2.351235449E-01 9.972573519E-01
 -2.140000105E+00 2.364079505E-01 9.972581863E-01
 -2.140000105E+00 2.376923561E-01 9.972590804E-01
 -2.140000105E+00 2.389767766E-01 9.972599149E-01
 -2.140000105E+00 2.402611822E-01 9.972607493E-01
 -2.140000105E+00 2.415455878E-01 9.972615242E-01
 -2.140000105E+00 2.428299934E-01 9.972623587E-01
 -2.140000105E+00 2.441143990E-01 9.972631931E-01
 -2.140000105E+00 2.453988045E-01 9.972639084E-01
 -2.140000105E+00 2.466832101E-01 9.972647429E-01
 -2.140000105E+00 2.479676157E-01 9.972655177E-01
 -2.140000105E+00 2.492520213E-01 9.972662330E-01
 -2.140000105E+00 2.505364418E-01 9.972670674E-01
 -2.140000105E+00 2.518208325E-01 9.972678423E-01
 -2.140000105E+00 2.531052530E-01 9.972685575E-01
 -2.140000105E+00 2.543896437E-01 9.972693920E-01
 -2.140000105E+00 2.556740642E-01 9.972700477E-01
 -2.140000105E+00 2.569584548E-01 9.972708225E-01
 -2.140000105E+00 2.582428753E-01 9.972715378E-01
 -2.140000105E+00 2.595272660E-01 9.972721934E-01
 -2.140000105E+00 2.608116865E-01 9.972729683E-01
 -2.140000105E+00 2.620960772E-01 9.972736835E-01
 -2.140000105E+00 2.633804977E-01 9.972743988E-01
 -2.140000105E+00 2.646648884E-01 9.972751141E-01
 -2.140000105E+00 2.659493089E-01 9.972757697E-01
 -2.140000105E+00 2.672337294E-01 9.972764254E-01
 -2.140000105E+00 2.685181201E-01 9.972771406E-01
 -2.140000105E+00 2.698025405E-01 9.972777963E-01
 -2.140000105E+00 2.710869312E-01 9.972783923E-01
 -2.140000105E+00 2.723713517E-01 9.972790480E-01
 -2.140000105E+00 2.736557424E-01 9.972797632E-01
 -2.140000105E+00 2.749401629E-01 9.972804189E-01
 -2.140000105E+00 2.762245536E-01 9.972810745E-01
 -2.140000105E+00 2.775089741E-01 9.972816706E-01
 -2.140000105E+00 2.787933648E-01 9.972822666E-01
 -2.140000105E+00 2.800777853E-01 9.972829223E-01
 -2.140000105E+00 2.813621759E-01 9.972835183E-01
 -2.140000105E+00 2.826465964E-01 9.972841144E-01
 -2.140000105E+00 2.839310169E-01 9.972847104E-01
 -2.140000105E+00 2.852154076E-01 9.972853065E-01
 -2.140000105E+00 2.864998281E-01 9.972859621E-01
 -2.140000105E+00 2.877842188E-01 9.972865582E-01
 -2.140000105E+00 2.890686393E-01 9.972871542E-01
 -2.140000105E+00 2.903530300E-01 9.972876906E-01
 -2.140000105E+00 2.916374505E-01 9.972882867E-01
 -2.140000105E+00 2.929218411E-01 9.972888231E-01
 -2.140000105E+00 2.942062616E-01 9.972894192E-01
 -2.140000105E+00 2.954906523E-01 9.972899556E-01
 -2.140000105E+00 2.967750728E-01 9.972905517E-01
 -2.140000105E+00 2.980594635E-01 9.972910881E-01
 -2.140000105E+00 2.993438840E-01 9.972916842E-01
 -2.140000105E+00 3.006282747E-01 9.972921610E-01
 -2.140000105E+00 3.019126952E-01 9.972927570E-01
 -2.140000105E+00 3.031971157E-01 9.972932339E-01
 -2.140000105E+00 3.044815063E-01 9.972937107E-01
 -2.140000105E+00 3.057659268E-01 9.972942472E-01
 -2.140000105E+00 3.070503175E-01 9.972947836E-01
 -2.140000105E+00 3.083347380E-01 9.972953200E-01
 -2.140000105E+00 3.096191287E-01 9.972958565E-01
 -2.140000105E+00 3.109035492E-01 9.972963333E-01
 -2.140000105E+00 3.121879399E-01 9.972968698E-01
 -2.140000105E+00 3.134723604E-01 9.972972870E-01
 -2.140000105E+00 3.147567511E-01 9.972978234E-01
 -2.140000105E+00 3.160411716E-01 9.972983003E-01
 -2.140000105E+00 3.173255622E-01 9.972988367E-01
 -2.140000105E+00 3.186099827E-01 9.972992539E-01
 -2.140000105E+00 3.198943734E-01 9.972996712E-01
 -2.140000105E+00 3.211787939E-01 9.973001480E-01
 -2.140000105E+00 3.224632144E-01 9.973006248E-01
 -2.140000105E+00 3.237476051E-01 9.973011017E-01
 -2.140000105E+00 3.250320256E-01 9.973015785E-01
 -2.140000105E+00 3.263164163E-01 9.973019958E-01
 -2.140000105E+00 3.276008368E-01 9.973024726E-01
 -2.140000105E+00 3.288852274E-01 9.973028898E-01
 -2.140000105E+00 3.301696479E-01 9.973033667E-01
 -2.140000105E+00 3.314540386E-01 9.973037243E-01
 -2.140000105E+00 3.327384591E-01 9.973042011E-01
 -2.140000105E+00 3.340228498E-01 9.973045588E-01
 -2.140000105E+00 3.353072703E-01 9.973049760E-01
 -2.140000105E+00 3.365916610E-01 9.973054528E-01
 -2.140000105E+00 3.378760815E-01 9.973058105E-01
 -2.140000105E+00 3.391605020E-01 9.973062277E-01
 -2.140000105E+00 3.404448926E-01 9.973066449E-01
 -2.140000105E+00 3.417293131E-01 9.973070621E-01
 -2.140000105E+00 3.430137038E-01 9.973074198E-01
 -2.140000105E+00 3.442981243E-01 9.973078370E-01
 -2.140000105E+00 3.455825150E-01 9.973081946E-01
 -2.140000105E+00 3.468669355E-01 9.973085523E-01
 -2.140000105E+00 3.481513262E-01 9.973089695E-01
 -2.140000105E+00 3.494357467E-01 9.973093271E-01
 -2.140000105E+00 3.507201374E-01 9.973096848E-01
 -2.140000105E+00 3.520045578E-01 9.973100424E-01
 -2.140000105E+00 3.532889485E-01 9.973104000E-01
 -2.140000105E+00 3.545733690E-01 9.973108172E-01
 -2.140000105E+00 3.558577597E-01 9.973111749E-01
 -2.140000105E+00 3.571421802E-01 9.973115325E-01
 -2.140000105E+00 3.584266007E-01 9.973119497E-01
 -2.140000105E+00 3.597109914E-01 9.973121881E-01
 -2.140000105E+00 3.609954119E-01 9.973126054E-01
 -2.140000105E+00 3.622798026E-01 9.973129034E-01
 -2.140000105E+00 3.635642231E-01 9.973132610E-01
 -2.140000105E+00 3.648486137E-01 9.973135591E-01
 -2.140000105E+00 3.661330342E-01 9.973139167E-01
 -2.140000105E+00 3.674174249E-01 9.973142147E-01
 -2.140000105E+00 3.687018454E-01 9.973145723E-01
 -2.140000105E+00 3.699862361E-01 9.973149300E-01
 -2.140000105E+00 3.712706566E-01 9.973152876E-01
 -2.140000105E+00 3.725550473E-01 9.973155856E-01
 -2.140000105E+00 3.738394678E-01 9.973158836E-01
 -2.140000105E+00 3.751238585E-01 9.973161817E-01
 -2.140000105E+00 3.764082789E-01 9.973163605E-01
 -2.140000105E+00 3.776926994E-01 9.973167181E-01
 -2.140000105E+00 3.789770901E-01 9.973169565E-01
 -2.140000105E+00 3.802615106E-01 9.973173141E-01
 -2.140000105E+00 3.815459013E-01 9.973175526E-01
 -2.140000105E+00 3.828303218E-01 9.973179102E-01
 -2.140000105E+00 3.841147125E-01 9.973180890E-01
ZONE T="x/c=0.65"
 6.499999762E-01 1.161499992E-01 3.321703523E-03
 6.499999762E-01 1.161757037E-01 2.493862063E-02
 6.499999762E-01 1.161819994E-01 3.049647622E-02
 6.499999762E-01 1.161884964E-01 3.631357849E-02
 6.499999762E-01 1.161950976E-01 4.228772596E-02
 6.499999762E-01 1.162016988E-01 4.830610380E-02
 6.499999762E-01 1.162085012E-01 5.453952402E-02
 6.499999762E-01 1.162153035E-01 6.078458577E-02
 6.499999762E-01 1.162222996E-01 6.719118357E-02
 6.499999762E-01 1.162293032E-01 7.358989865E-02
 6.499999762E-01 1.162365004E-01 8.013550192E-02
 6.499999762E-01 1.162438020E-01 8.672173321E-02
 6.499999762E-01 1.162512973E-01 9.341138601E-02
 6.499999762E-01 1.162588969E-01 1.001184359E-01
 6.499999762E-01 1.162666976E-01 1.069060713E-01
 6.499999762E-01 1.162746996E-01 1.137585565E-01
 6.499999762E-01 1.162827983E-01 1.205870584E-01
 6.499999762E-01 1.162912026E-01 1.275381595E-01
 6.499999762E-01 1.162997037E-01 1.344261020E-01
 6.499999762E-01 1.163085029E-01 1.414096951E-01
 6.499999762E-01 1.163175032E-01 1.483942568E-01
 6.499999762E-01 1.163268983E-01 1.555072516E-01
 6.499999762E-01 1.163363978E-01 1.625227034E-01
 6.499999762E-01 1.163462996E-01 1.696498692E-01
 6.499999762E-01 1.163564995E-01 1.767910123E-01
 6.499999762E-01 1.163669974E-01 1.839323044E-01
 6.499999762E-01 1.163778976E-01 1.911318004E-01
 6.499999762E-01 1.163891032E-01 1.982882470E-01
 6.499999762E-01 1.164008006E-01 2.055206001E-01
 6.499999762E-01 1.164128035E-01 2.127000690E-01
 6.499999762E-01 1.164252982E-01 2.199271172E-01
 6.499999762E-01 1.164382026E-01 2.271354049E-01
 6.499999762E-01 1.164515987E-01 2.343532741E-01
 6.499999762E-01 1.164655015E-01 2.415735126E-01
 6.499999762E-01 1.164799035E-01 2.487798929E-01
 6.499999762E-01 1.164949015E-01 2.560017705E-01
 6.499999762E-01 1.165105030E-01 2.632212043E-01
 6.499999762E-01 1.165267006E-01 2.704207003E-01
 6.499999762E-01 1.165435016E-01 2.775937915E-01
 6.499999762E-01 1.165610030E-01 2.847579718E-01
 6.499999762E-01 1.165791005E-01 2.918668687E-01
 6.499999762E-01 1.165980995E-01 2.990170717E-01
 6.499999762E-01 1.166177019E-01 3.060917854E-01
 6.499999762E-01 1.166381985E-01 3.131788373E-01
 6.499999762E-01 1.166594997E-01 3.202256262E-01
 6.499999762E-01 1.166817024E-01 3.272699118E-01
 6.499999762E-01 1.167049035E-01 3.343312144E-01
 6.499999762E-01 1.167289019E-01 3.413424194E-01
 6.499999762E-01 1.167540029E-01 3.483853042E-01
 6.499999762E-01 1.167801023E-01 3.554246426E-01
 6.499999762E-01 1.168072969E-01 3.624804318E-01
 6.499999762E-01 1.168356985E-01 3.695739508E-01
 6.499999762E-01 1.168652996E-01 3.766993284E-01
 6.499999762E-01 1.168961003E-01 3.838491142E-01
 6.499999762E-01 1.169281974E-01 3.910413980E-01
 6.499999762E-01 1.169617027E-01 3.982952833E-01
 6.499999762E-01 1.169964969E-01 4.055795372E-01
 6.499999762E-01 1.170329005E-01 4.129567742E-01
 6.499999762E-01 1.170708016E-01 4.203978479E-01
 6.499999762E-01 1.171104014E-01 4.279351532E-01
 6.499999762E-01 1.171516031E-01 4.355443120E-01
 6.499999762E-01 1.171946004E-01 4.432539940E-01
 6.499999762E-01 1.172394976E-01 4.510732889E-01
 6.499999762E-01 1.172861978E-01 4.589786530E-01
 6.499999762E-01 1.173349991E-01 4.670121670E-01
 6.499999762E-01 1.173857972E-01 4.751464427E-01
 6.499999762E-01 1.174388975E-01 4.834181666E-01
 6.499999762E-01 1.174942032E-01 4.918031394E-01
 6.499999762E-01 1.175519004E-01 5.003179312E-01
 6.499999762E-01 1.176121011E-01 5.089665651E-01
 6.499999762E-01 1.176747978E-01 5.177361369E-01
 6.499999762E-01 1.177403033E-01 5.266563892E-01
 6.499999762E-01 1.178086028E-01 5.357109904E-01
 6.499999762E-01 1.178798974E-01 5.449099541E-01
 6.499999762E-01 1.179542020E-01 5.542436242E-01
 6.499999762E-01 1.180317029E-01 5.637172461E-01
 6.499999762E-01 1.181124970E-01 5.733290911E-01
 6.499999762E-01 1.181968972E-01 5.830978751E-01
 6.499999762E-01 1.182847992E-01 5.929954648E-01
 6.499999762E-01 1.183765978E-01 6.030471921E-01
 6.499999762E-01 1.184723973E-01 6.132469177E-01
 6.499999762E-01 1.185721979E-01 6.235749125E-01
 6.499999762E-01 1.186764017E-01 6.340512037E-01
 6.499999762E-01 1.187850013E-01 6.446579695E-01
 6.499999762E-01 1.188983992E-01 6.554157138E-01
 6.499999762E-01 1.190166026E-01 6.663030386E-01
 6.499999762E-01 1.191399992E-01 6.773341894E-01
 6.499999762E-01 1.192686036E-01 6.884903908E-01
 6.499999762E-01 1.194028035E-01 6.997824311E-01
 6.499999762E-01 1.195427999E-01 7.112035155E-01
 6.499999762E-01 1.196888983E-01 7.227551341E-01
 6.499999762E-01 1.198412031E-01 7.344207168E-01
 6.499999762E-01 1.200001016E-01 7.462058067E-01
 6.499999762E-01 1.201658994E-01 7.581061125E-01
 6.499999762E-01 1.203389019E-01 7.701158524E-01
 6.499999762E-01 1.205193028E-01 7.822191715E-01
 6.499999762E-01 1.207074970E-01 7.944091558E-01
 6.499999762E-01 1.209039018E-01 8.066775799E-01
 6.499999762E-01 1.211087033E-01 8.189975619E-01
 6.499999762E-01 1.213224977E-01 8.313621283E-01
 6.499999762E-01 1.215455011E-01 8.437365294E-01
 6.499999762E-01 1.217781976E-01 8.560946584E-01
 6.499999762E-01 1.220211014E-01 8.684030771E-01
 6.499999762E-01 1.222745031E-01 8.806109428E-01
 6.499999762E-01 1.225389019E-01 8.926672339E-01
 6.499999762E-01 1.228149012E-01 9.045132399E-01
 6.499999762E-01 1.231029034E-01 9.160716534E-01
 6.499999762E-01 1.234034970E-01 9.272670150E-01
 6.499999762E-01 1.237171963E-01 9.380128980E-01
 6.499999762E-01 1.240447015E-01 9.482294321E-01
 6.499999762E-01 1.243864968E-01 9.578385949E-01
 6.499999762E-01 1.247432977E-01 9.667947292E-01
 6.499999762E-01 1.251157969E-01 9.750803709E-01
 6.499999762E-01 1.255044937E-01 9.827032685E-01
 6.499999762E-01 1.259101927E-01 9.897080064E-01
 6.499999762E-01 1.263336986E-01 9.961563945E-01
 6.499999762E-01 1.267755926E-01 1.002112031E+00
 6.499999762E-01 1.272369027E-01 1.007656813E+00
 6.499999762E-01 1.277181953E-01 1.012860417E+00
 6.499999762E-01 1.282204986E-01 1.017791390E+00
 6.499999762E-01 1.287447959E-01 1.022509098E+00
 6.499999762E-01 1.292918026E-01 1.027054906E+00
 6.499999762E-01 1.298626065E-01 1.031473994E+00
 6.499999762E-01 1.304582059E-01 1.035800219E+00
 6.499999762E-01 1.310797036E-01 1.040064216E+00
 6.499999762E-01 1.317282021E-01 1.044285536E+00
 6.499999762E-01 1.324048936E-01 1.048485994E+00
 6.499999762E-01 1.331108958E-01 1.052681327E+00
 6.499999762E-01 1.338475943E-01 1.056886196E+00
 6.499999762E-01 1.346161962E-01 1.061109543E+00
 6.499999762E-01 1.354182065E-01 1.065361977E+00
 6.499999762E-01 1.362549067E-01 1.069650650E+00
 6.499999762E-01 1.371279955E-01 1.073981524E+00
 6.499999762E-01 1.380387992E-01 1.078359604E+00
 6.499999762E-01 1.389891952E-01 1.082790971E+00
 6.499999762E-01 1.399807930E-01 1.087278366E+00
 6.499999762E-01 1.410153955E-01 1.091825724E+00
 6.499999762E-01 1.420948058E-01 1.096434951E+00
 6.499999762E-01 1.432210058E-01 1.101108432E+00
 6.499999762E-01 1.443960965E-01 1.105847597E+00
 6.499999762E-01 1.456221044E-01 1.110653281E+00
 6.499999762E-01 1.469012052E-01 1.115524769E+00
 6.499999762E-01 1.482359022E-01 1.120462894E+00
 6.499999762E-01 1.496284008E-01 1.125465512E+00
 6.499999762E-01 1.510812938E-01 1.130530000E+00
 6.499999762E-01 1.525972933E-01 1.135655284E+00
 6.499999762E-01 1.541790068E-01 1.140835762E+00
 6.499999762E-01 1.558292955E-01 1.146068335E+00
 6.499999762E-01 1.575511992E-01 1.151345849E+00
 6.499999762E-01 1.593476981E-01 1.156662464E+00
 6.499999762E-01 1.612222940E-01 1.162008286E+00
 6.499999762E-01 1.631781012E-01 1.167374015E+00
 6.499999762E-01 1.652188003E-01 1.172744751E+00
 6.499999762E-01 1.673479974E-01 1.178107142E+00
 6.499999762E-01 1.695697010E-01 1.183439255E+00
 6.499999762E-01 1.718876958E-01 1.188719153E+00
 6.499999762E-01 1.743061990E-01 1.193912983E+00
 6.499999762E-01 1.768296957E-01 1.198984504E+00
 6.499999762E-01 1.794627011E-01 1.203879356E+00
 6.499999762E-01 1.822099984E-01 1.208532691E+00
 6.499999762E-01 1.850764006E-01 1.212853670E+00
 6.499999762E-01 1.880671978E-01 1.216729403E+00
 6.499999762E-01 1.911877990E-01 1.220019817E+00
 6.499999762E-01 1.944438070E-01 1.222581029E+00
 6.499999762E-01 1.978410035E-01 1.224304318E+00
 6.499999762E-01 2.013857067E-01 1.225165248E+00
 6.499999762E-01 2.050842047E-01 1.225254297E+00
 6.499999762E-01 2.089432031E-01 1.224748611E+00
 6.499999762E-01 2.129696012E-01 1.223856926E+00
 6.499999762E-01 2.171707004E-01 1.222741723E+00
 6.499999762E-01 2.215541005E-01 1.221516371E+00
 6.499999762E-01 2.261276990E-01 1.220251441E+00
 6.499999762E-01 2.308997959E-01 1.218986511E+00
 6.499999762E-01 2.358788997E-01 1.217730761E+00
 6.499999762E-01 2.410741001E-01 1.216463327E+00
 6.499999762E-01 2.464946955E-01 1.215162516E+00
 6.499999762E-01 2.521505058E-01 1.213811517E+00
 6.499999762E-01 2.580518126E-01 1.212400675E+00
 6.499999762E-01 2.642090023E-01 1.210928679E+00
 6.499999762E-01 2.706334889E-01 1.209394217E+00
 6.499999762E-01 2.773366868E-01 1.207795024E+00
 6.499999762E-01 2.843307853E-01 1.206129551E+00
 6.499999762E-01 2.916283906E-01 1.204394937E+00
 6.499999762E-01 2.992425859E-01 1.202590942E+00
 6.499999762E-01 3.071871996E-01 1.200725079E+00
 6.499999762E-01 3.154765964E-01 1.198804140E+00
 6.499999762E-01 3.241255879E-01 1.196824551E+00
 6.499999762E-01 3.331499100E-01 1.194784641E+00
 6.499999762E-01 3.425656855E-01 1.192690134E+00
 6.499999762E-01 3.523901999E-01 1.190547228E+00
 6.499999762E-01 3.626408875E-01 1.188352823E+00
 6.499999762E-01 3.733364046E-01 1.186112046E+00
 6.499999762E-01 3.844959140E-01 1.183833480E+00
 6.499999762E-01 3.961397111E-01 1.181521535E+00
 6.499999762E-01 4.082886875E-01 1.179179430E+00
 6.499999762E-01 4.209648073E-01 1.176813364E+00
 6.499999762E-01 4.341908991E-01 1.174429297E+00
 6.499999762E-01 4.479908943E-01 1.172033906E+00
 6.499999762E-01 4.623895884E-01 1.169634342E+00
 6.499999762E-01 4.774130881E-01 1.167237163E+00
 6.499999762E-01 4.930885136E-01 1.164850116E+00
 6.499999762E-01 5.094438791E-01 1.162481070E+00
 6.499999762E-01 5.265089869E-01 1.160137892E+00
 6.499999762E-01 5.443145037E-01 1.157828927E+00
 6.499999762E-01 5.628924966E-01 1.155562282E+00
 6.499999762E-01 5.822765231E-01 1.153345823E+00
 6.499999762E-01 6.025015712E-01 1.151187897E+00
 6.499999762E-01 6.236041188E-01 1.149095297E+00
 6.499999762E-01 6.456223130E-01 1.147074938E+00
 6.499999762E-01 6.685956120E-01 1.145131707E+00
 6.499999762E-01 6.925656796E-01 1.143270373E+00
 6.499999762E-01 7.175757289E-01 1.141482949E+00
 6.499999762E-01 7.436707020E-01 1.139757752E+00
 6.499999762E-01 7.708979249E-01 1.138069868E+00
 6.499999762E-01 7.993062735E-01 1.136682987E+00
 6.499999762E-01 8.289471269E-01 1.135877132E+00
 6.499999762E-01 8.598734736E-01 1.133354783E+00
 6.499999762E-01 8.921396732E-01 1.131068707E+00
ZONE T="x/c=0.8"
 8.000000119E-01 2.460199967E-02 -3.666565681E-05
 8.000000119E-01 2.461059950E-02 -1.155616716E-03
 8.000000119E-01 2.461968921E-02 -2.348062349E-03
 8.000000119E-01 2.462900989E-02 -3.576890100E-03
 8.000000119E-01 2.463857085E-02 -4.839778878E-03
 8.000000119E-01 2.464839071E-02 -6.138429977E-03
 8.000000119E-01 2.465848066E-02 -7.470720448E-03
 8.000000119E-01 2.466885932E-02 -8.829006925E-03
 8.000000119E-01 2.467953973E-02 -1.023014914E-02
 8.000000119E-01 2.469055913E-02 -1.166583598E-02
 8.000000119E-01 2.470193058E-02 -1.313515473E-02
 8.000000119E-01 2.471365966E-02 -1.462374628E-02
 8.000000119E-01 2.472578920E-02 -1.615394279E-02
 8.000000119E-01 2.473831922E-02 -1.771059446E-02
 8.000000119E-01 2.475129999E-02 -1.929443516E-02
 8.000000119E-01 2.476472966E-02 -2.089449205E-02
 8.000000119E-01 2.477863990E-02 -2.252431959E-02
 8.000000119E-01 2.479306050E-02 -2.417630702E-02
 8.000000119E-01 2.480801009E-02 -2.583791688E-02
 8.000000119E-01 2.482352033E-02 -2.751695178E-02
 8.000000119E-01 2.483961917E-02 -2.921270579E-02
 8.000000119E-01 2.485634014E-02 -3.092132136E-02
 8.000000119E-01 2.487370931E-02 -3.262596577E-02
 8.000000119E-01 2.489176020E-02 -3.434523195E-02
 8.000000119E-01 2.491050959E-02 -3.606857732E-02
 8.000000119E-01 2.493002079E-02 -3.779600561E-02
 8.000000119E-01 2.495029941E-02 -3.951071948E-02
 8.000000119E-01 2.497139946E-02 -4.122687131E-02
 8.000000119E-01 2.499335073E-02 -4.294154048E-02
 8.000000119E-01 2.501620911E-02 -4.465328157E-02
 8.000000119E-01 2.503998950E-02 -4.635418206E-02
 8.000000119E-01 2.506476082E-02 -4.803573713E-02
 8.000000119E-01 2.509054914E-02 -4.971276969E-02
 8.000000119E-01 2.511741035E-02 -5.137748271E-02
 8.000000119E-01 2.514538914E-02 -5.302855372E-02
 8.000000119E-01 2.517453954E-02 -5.466511473E-02
 8.000000119E-01 2.520490997E-02 -5.628076196E-02
 8.000000119E-01 2.523656003E-02 -5.786819384E-02
 8.000000119E-01 2.526954003E-02 -5.943998694E-02
 8.000000119E-01 2.530392073E-02 -6.099073589E-02
 8.000000119E-01 2.533975057E-02 -6.251852214E-02
 8.000000119E-01 2.537710033E-02 -6.402261555E-02
 8.000000119E-01 2.541604079E-02 -6.550238281E-02
 8.000000119E-01 2.545664087E-02 -6.695485860E-02
 8.000000119E-01 2.549898066E-02 -6.837745756E-02
 8.000000119E-01 2.554311045E-02 -6.976875663E-02
 8.000000119E-01 2.558914013E-02 -7.113474607E-02
 8.000000119E-01 2.563714050E-02 -7.247452438E-02
 8.000000119E-01 2.568719909E-02 -7.378759980E-02
 8.000000119E-01 2.573939972E-02 -7.507401705E-02
 8.000000119E-01 2.579385042E-02 -7.633490860E-02
 8.000000119E-01 2.585064061E-02 -7.757053524E-02
 8.000000119E-01 2.590987086E-02 -7.878202200E-02
 8.000000119E-01 2.597164921E-02 -7.997056842E-02
 8.000000119E-01 2.603610046E-02 -8.113706112E-02
 8.000000119E-01 2.610331960E-02 -8.228370547E-02
 8.000000119E-01 2.617345005E-02 -8.340851963E-02
 8.000000119E-01 2.624659985E-02 -8.451624960E-02
 8.000000119E-01 2.632291056E-02 -8.560933918E-02
 8.000000119E-01 2.640252002E-02 -8.668890595E-02
 8.000000119E-01 2.648556978E-02 -8.775665611E-02
 8.000000119E-01 2.657221071E-02 -8.881334215E-02
 8.000000119E-01 2.666259930E-02 -8.985977620E-02
 8.000000119E-01 2.675689943E-02 -9.089659899E-02
 8.000000119E-01 2.685528994E-02 -9.192407131E-02
 8.000000119E-01 2.695792913E-02 -9.294245392E-02
 8.000000119E-01 2.706502005E-02 -9.395182133E-02
 8.000000119E-01 2.717675082E-02 -9.495185316E-02
 8.000000119E-01 2.729333006E-02 -9.594235569E-02
 8.000000119E-01 2.741494961E-02 -9.692263603E-02
 8.000000119E-01 2.754184976E-02 -9.789200127E-02
 8.000000119E-01 2.767425030E-02 -9.884962440E-02
 8.000000119E-01 2.781240083E-02 -9.979456663E-02
 8.000000119E-01 2.795653977E-02 -1.007257700E-01
 8.000000119E-01 2.810692973E-02 -1.016420275E-01
 8.000000119E-01 2.826385014E-02 -1.025421917E-01
 8.000000119E-01 2.842758037E-02 -1.034253091E-01
 8.000000119E-01 2.859842032E-02 -1.042899489E-01
 8.000000119E-01 2.877667919E-02 -1.051353291E-01
 8.000000119E-01 2.896266989E-02 -1.059600338E-01
 8.000000119E-01 2.915675007E-02 -1.067616493E-01
 8.000000119E-01 2.935924940E-02 -1.075402647E-01