# CFL3D results for NASA wall-mounted hump, fine grid from CFDVAL2004, SST model
VARIABLES = "x/c","y/c","u/Uref"                                                
ZONE T="x/c=-2.14"                                                              
 -0.2140000105E+01  0.7713619561E-04  0.9947017767E-01
 -0.2140000105E+01  0.1361542847E-02  0.5260464177E+00
 -0.2140000105E+01  0.2645949367E-02  0.5985309184E+00
 -0.2140000105E+01  0.3930355888E-02  0.6396192312E+00
 -0.2140000105E+01  0.5214762874E-02  0.6685516238E+00
 -0.2140000105E+01  0.6499169394E-02  0.6910641491E+00
 -0.2140000105E+01  0.7783575915E-02  0.7096075267E+00
 -0.2140000105E+01  0.9067982435E-02  0.7254248857E+00
 -0.2140000105E+01  0.1035238896E-01  0.7393200696E+00
 -0.2140000105E+01  0.1163679548E-01  0.7517537475E+00
 -0.2140000105E+01  0.1292120293E-01  0.7630662620E+00
 -0.2140000105E+01  0.1420560945E-01  0.7734696567E+00
 -0.2140000105E+01  0.1549001597E-01  0.7831378281E+00
 -0.2140000105E+01  0.1677442156E-01  0.7922143489E+00
 -0.2140000105E+01  0.1805882901E-01  0.8007673174E+00
 -0.2140000105E+01  0.1934323646E-01  0.8089080453E+00
 -0.2140000105E+01  0.2062764205E-01  0.8167039603E+00
 -0.2140000105E+01  0.2191204950E-01  0.8241991699E+00
 -0.2140000105E+01  0.2319645509E-01  0.8314791322E+00
 -0.2140000105E+01  0.2448086254E-01  0.8385892212E+00
 -0.2140000105E+01  0.2576526813E-01  0.8455378562E+00
 -0.2140000105E+01  0.2704967558E-01  0.8523489535E+00
 -0.2140000105E+01  0.2833408304E-01  0.8590468019E+00
 -0.2140000105E+01  0.2961848862E-01  0.8656479418E+00
 -0.2140000105E+01  0.3090289608E-01  0.8721704781E+00
 -0.2140000105E+01  0.3218730167E-01  0.8786334097E+00
 -0.2140000105E+01  0.3347170725E-01  0.8850545436E+00
 -0.2140000105E+01  0.3475611657E-01  0.8914490789E+00
 -0.2140000105E+01  0.3604052216E-01  0.8978281170E+00
 -0.2140000105E+01  0.3732492775E-01  0.9041945636E+00
 -0.2140000105E+01  0.3860933334E-01  0.9105419368E+00
 -0.2140000105E+01  0.3989374265E-01  0.9168518335E+00
 -0.2140000105E+01  0.4117814824E-01  0.9231042117E+00
 -0.2140000105E+01  0.4246255383E-01  0.9292472154E+00
 -0.2140000105E+01  0.4374696314E-01  0.9351798147E+00
 -0.2140000105E+01  0.4503136873E-01  0.9409198910E+00
 -0.2140000105E+01  0.4631577432E-01  0.9464210272E+00
 -0.2140000105E+01  0.4760017991E-01  0.9515264630E+00
 -0.2140000105E+01  0.4888458923E-01  0.9564607590E+00
 -0.2140000105E+01  0.5016899481E-01  0.9611338377E+00
 -0.2140000105E+01  0.5145340040E-01  0.9656338394E+00
 -0.2140000105E+01  0.5273780972E-01  0.9700481594E+00
 -0.2140000105E+01  0.5402221531E-01  0.9742181748E+00
 -0.2140000105E+01  0.5530662090E-01  0.9783095121E+00
 -0.2140000105E+01  0.5659102648E-01  0.9820804000E+00
 -0.2140000105E+01  0.5787543580E-01  0.9856278449E+00
 -0.2140000105E+01  0.5915984139E-01  0.9886892885E+00
 -0.2140000105E+01  0.6044424698E-01  0.9913183004E+00
 -0.2140000105E+01  0.6172865629E-01  0.9932213277E+00
 -0.2140000105E+01  0.6301306188E-01  0.9947084635E+00
 -0.2140000105E+01  0.6429746747E-01  0.9954141825E+00
 -0.2140000105E+01  0.6558187306E-01  0.9959754348E+00
 -0.2140000105E+01  0.6686627865E-01  0.9960623831E+00
 -0.2140000105E+01  0.6815068424E-01  0.9961465001E+00
 -0.2140000105E+01  0.6943509728E-01  0.9961323440E+00
 -0.2140000105E+01  0.7071950287E-01  0.9961182624E+00
 -0.2140000105E+01  0.7200390846E-01  0.9961151332E+00
 -0.2140000105E+01  0.7328831404E-01  0.9961161762E+00
 -0.2140000105E+01  0.7457271963E-01  0.9961178154E+00
 -0.2140000105E+01  0.7585712522E-01  0.9961208701E+00
 -0.2140000105E+01  0.7714153081E-01  0.9961239994E+00
 -0.2140000105E+01  0.7842594385E-01  0.9961266816E+00
 -0.2140000105E+01  0.7971034944E-01  0.9961292893E+00
 -0.2140000105E+01  0.8099475503E-01  0.9961318970E+00
 -0.2140000105E+01  0.8227916062E-01  0.9961344302E+00
 -0.2140000105E+01  0.8356356621E-01  0.9961369634E+00
 -0.2140000105E+01  0.8484797180E-01  0.9961394966E+00
 -0.2140000105E+01  0.8613237739E-01  0.9961420298E+00
 -0.2140000105E+01  0.8741679043E-01  0.9961445630E+00
 -0.2140000105E+01  0.8870119601E-01  0.9961470217E+00
 -0.2140000105E+01  0.8998560160E-01  0.9961494803E+00
 -0.2140000105E+01  0.9127000719E-01  0.9961519390E+00
 -0.2140000105E+01  0.9255441278E-01  0.9961543232E+00
 -0.2140000105E+01  0.9383881837E-01  0.9961567074E+00
 -0.2140000105E+01  0.9512322396E-01  0.9961590916E+00
 -0.2140000105E+01  0.9640763700E-01  0.9961614013E+00
 -0.2140000105E+01  0.9769204259E-01  0.9961637110E+00
 -0.2140000105E+01  0.9897644818E-01  0.9961660206E+00
 -0.2140000105E+01  0.1002608538E+00  0.9961683303E+00
 -0.2140000105E+01  0.1015452594E+00  0.9961705655E+00
 -0.2140000105E+01  0.1028296649E+00  0.9961728752E+00
 -0.2140000105E+01  0.1041140705E+00  0.9961751103E+00
 -0.2140000105E+01  0.1053984836E+00  0.9961772710E+00
 -0.2140000105E+01  0.1066828892E+00  0.9961794317E+00
 -0.2140000105E+01  0.1079672948E+00  0.9961815923E+00
 -0.2140000105E+01  0.1092517003E+00  0.9961836785E+00
 -0.2140000105E+01  0.1105361059E+00  0.9961858392E+00
 -0.2140000105E+01  0.1118205115E+00  0.9961879253E+00
 -0.2140000105E+01  0.1131049171E+00  0.9961900115E+00
 -0.2140000105E+01  0.1143893301E+00  0.9961920977E+00
 -0.2140000105E+01  0.1156737357E+00  0.9961941093E+00
 -0.2140000105E+01  0.1169581413E+00  0.9961961955E+00
 -0.2140000105E+01  0.1182425469E+00  0.9961982071E+00
 -0.2140000105E+01  0.1195269525E+00  0.9962002188E+00
 -0.2140000105E+01  0.1208113581E+00  0.9962021559E+00
 -0.2140000105E+01  0.1220957637E+00  0.9962040931E+00
 -0.2140000105E+01  0.1233801767E+00  0.9962060302E+00
 -0.2140000105E+01  0.1246645823E+00  0.9962079674E+00
 -0.2140000105E+01  0.1259489805E+00  0.9962098300E+00
 -0.2140000105E+01  0.1272333860E+00  0.9962116927E+00
 -0.2140000105E+01  0.1285178065E+00  0.9962135553E+00
 -0.2140000105E+01  0.1298022121E+00  0.9962154180E+00
 -0.2140000105E+01  0.1310866177E+00  0.9962172061E+00
 -0.2140000105E+01  0.1323710233E+00  0.9962189943E+00
 -0.2140000105E+01  0.1336554289E+00  0.9962208569E+00
 -0.2140000105E+01  0.1349398345E+00  0.9962226450E+00
 -0.2140000105E+01  0.1362242401E+00  0.9962243587E+00
 -0.2140000105E+01  0.1375086457E+00  0.9962260723E+00
 -0.2140000105E+01  0.1387930512E+00  0.9962278605E+00
 -0.2140000105E+01  0.1400774568E+00  0.9962295741E+00
 -0.2140000105E+01  0.1413618624E+00  0.9962312132E+00
 -0.2140000105E+01  0.1426462680E+00  0.9962328523E+00
 -0.2140000105E+01  0.1439306736E+00  0.9962344915E+00
 -0.2140000105E+01  0.1452150792E+00  0.9962361306E+00
 -0.2140000105E+01  0.1464994997E+00  0.9962377697E+00
 -0.2140000105E+01  0.1477839053E+00  0.9962393343E+00
 -0.2140000105E+01  0.1490683109E+00  0.9962409735E+00
 -0.2140000105E+01  0.1503527164E+00  0.9962425381E+00
 -0.2140000105E+01  0.1516371220E+00  0.9962441772E+00
 -0.2140000105E+01  0.1529215276E+00  0.9962457418E+00
 -0.2140000105E+01  0.1542059332E+00  0.9962472320E+00
 -0.2140000105E+01  0.1554903388E+00  0.9962487966E+00
 -0.2140000105E+01  0.1567747444E+00  0.9962502867E+00
 -0.2140000105E+01  0.1580591500E+00  0.9962517768E+00
 -0.2140000105E+01  0.1593435556E+00  0.9962533414E+00
 -0.2140000105E+01  0.1606279612E+00  0.9962547570E+00
 -0.2140000105E+01  0.1619123667E+00  0.9962561727E+00
 -0.2140000105E+01  0.1631967723E+00  0.9962576628E+00
 -0.2140000105E+01  0.1644811779E+00  0.9962590784E+00
 -0.2140000105E+01  0.1657655984E+00  0.9962604940E+00
 -0.2140000105E+01  0.1670500040E+00  0.9962619096E+00
 -0.2140000105E+01  0.1683344096E+00  0.9962633252E+00
 -0.2140000105E+01  0.1696188152E+00  0.9962646663E+00
 -0.2140000105E+01  0.1709032208E+00  0.9962660819E+00
 -0.2140000105E+01  0.1721876264E+00  0.9962674230E+00
 -0.2140000105E+01  0.1734720320E+00  0.9962688386E+00
 -0.2140000105E+01  0.1747564375E+00  0.9962701052E+00
 -0.2140000105E+01  0.1760408431E+00  0.9962713718E+00
 -0.2140000105E+01  0.1773252487E+00  0.9962727129E+00
 -0.2140000105E+01  0.1786096543E+00  0.9962739795E+00
 -0.2140000105E+01  0.1798940599E+00  0.9962753206E+00
 -0.2140000105E+01  0.1811784655E+00  0.9962765872E+00
 -0.2140000105E+01  0.1824628711E+00  0.9962777793E+00
 -0.2140000105E+01  0.1837472916E+00  0.9962790459E+00
 -0.2140000105E+01  0.1850316972E+00  0.9962803125E+00
 -0.2140000105E+01  0.1863161027E+00  0.9962815046E+00
 -0.2140000105E+01  0.1876005083E+00  0.9962827712E+00
 -0.2140000105E+01  0.1888849139E+00  0.9962839633E+00
 -0.2140000105E+01  0.1901693195E+00  0.9962851554E+00
 -0.2140000105E+01  0.1914537251E+00  0.9962862730E+00
 -0.2140000105E+01  0.1927381307E+00  0.9962874651E+00
 -0.2140000105E+01  0.1940225363E+00  0.9962885827E+00
 -0.2140000105E+01  0.1953069419E+00  0.9962897748E+00
 -0.2140000105E+01  0.1965913475E+00  0.9962908924E+00
 -0.2140000105E+01  0.1978757530E+00  0.9962920099E+00
 -0.2140000105E+01  0.1991601586E+00  0.9962931275E+00
 -0.2140000105E+01  0.2004445642E+00  0.9962941706E+00
 -0.2140000105E+01  0.2017289847E+00  0.9962952882E+00
 -0.2140000105E+01  0.2030133903E+00  0.9962963313E+00
 -0.2140000105E+01  0.2042977959E+00  0.9962974489E+00
 -0.2140000105E+01  0.2055822015E+00  0.9962984920E+00
 -0.2140000105E+01  0.2068666071E+00  0.9962995350E+00
 -0.2140000105E+01  0.2081510127E+00  0.9963005781E+00
 -0.2140000105E+01  0.2094354182E+00  0.9963015467E+00
 -0.2140000105E+01  0.2107198238E+00  0.9963025898E+00
 -0.2140000105E+01  0.2120042294E+00  0.9963036329E+00
 -0.2140000105E+01  0.2132886350E+00  0.9963046759E+00
 -0.2140000105E+01  0.2145730406E+00  0.9963056445E+00
 -0.2140000105E+01  0.2158574462E+00  0.9963066131E+00
 -0.2140000105E+01  0.2171418518E+00  0.9963075817E+00
 -0.2140000105E+01  0.2184262574E+00  0.9963084757E+00
 -0.2140000105E+01  0.2197106779E+00  0.9963094443E+00
 -0.2140000105E+01  0.2209950835E+00  0.9963104129E+00
 -0.2140000105E+01  0.2222794890E+00  0.9963113070E+00
 -0.2140000105E+01  0.2235638946E+00  0.9963122755E+00
 -0.2140000105E+01  0.2248483002E+00  0.9963131696E+00
 -0.2140000105E+01  0.2261327058E+00  0.9963140637E+00
 -0.2140000105E+01  0.2274171114E+00  0.9963149577E+00
 -0.2140000105E+01  0.2287015170E+00  0.9963158518E+00
 -0.2140000105E+01  0.2299859226E+00  0.9963167459E+00
 -0.2140000105E+01  0.2312703282E+00  0.9963176399E+00
 -0.2140000105E+01  0.2325547338E+00  0.9963184595E+00
 -0.2140000105E+01  0.2338391393E+00  0.9963193536E+00
 -0.2140000105E+01  0.2351235449E+00  0.9963201731E+00
 -0.2140000105E+01  0.2364079505E+00  0.9963209927E+00
 -0.2140000105E+01  0.2376923561E+00  0.9963218123E+00
 -0.2140000105E+01  0.2389767766E+00  0.9963226318E+00
 -0.2140000105E+01  0.2402611822E+00  0.9963234514E+00
 -0.2140000105E+01  0.2415455878E+00  0.9963242710E+00
 -0.2140000105E+01  0.2428299934E+00  0.9963250905E+00
 -0.2140000105E+01  0.2441143990E+00  0.9963259101E+00
 -0.2140000105E+01  0.2453988045E+00  0.9963266551E+00
 -0.2140000105E+01  0.2466832101E+00  0.9963274002E+00
 -0.2140000105E+01  0.2479676157E+00  0.9963282198E+00
 -0.2140000105E+01  0.2492520213E+00  0.9963289648E+00
 -0.2140000105E+01  0.2505364418E+00  0.9963297099E+00
 -0.2140000105E+01  0.2518208325E+00  0.9963304549E+00
 -0.2140000105E+01  0.2531052530E+00  0.9963312000E+00
 -0.2140000105E+01  0.2543896437E+00  0.9963320196E+00
 -0.2140000105E+01  0.2556740642E+00  0.9963326901E+00
 -0.2140000105E+01  0.2569584548E+00  0.9963333607E+00
 -0.2140000105E+01  0.2582428753E+00  0.9963340312E+00
 -0.2140000105E+01  0.2595272660E+00  0.9963347763E+00
 -0.2140000105E+01  0.2608116865E+00  0.9963354468E+00
 -0.2140000105E+01  0.2620960772E+00  0.9963361174E+00
 -0.2140000105E+01  0.2633804977E+00  0.9963368624E+00
 -0.2140000105E+01  0.2646648884E+00  0.9963375330E+00
 -0.2140000105E+01  0.2659493089E+00  0.9963382035E+00
 -0.2140000105E+01  0.2672337294E+00  0.9963387996E+00
 -0.2140000105E+01  0.2685181201E+00  0.9963394701E+00
 -0.2140000105E+01  0.2698025405E+00  0.9963400662E+00
 -0.2140000105E+01  0.2710869312E+00  0.9963407367E+00
 -0.2140000105E+01  0.2723713517E+00  0.9963413328E+00
 -0.2140000105E+01  0.2736557424E+00  0.9963420033E+00
 -0.2140000105E+01  0.2749401629E+00  0.9963425994E+00
 -0.2140000105E+01  0.2762245536E+00  0.9963432699E+00
 -0.2140000105E+01  0.2775089741E+00  0.9963438660E+00
 -0.2140000105E+01  0.2787933648E+00  0.9963444620E+00
 -0.2140000105E+01  0.2800777853E+00  0.9963449836E+00
 -0.2140000105E+01  0.2813621759E+00  0.9963455796E+00
 -0.2140000105E+01  0.2826465964E+00  0.9963461757E+00
 -0.2140000105E+01  0.2839310169E+00  0.9963467717E+00
 -0.2140000105E+01  0.2852154076E+00  0.9963473678E+00
 -0.2140000105E+01  0.2864998281E+00  0.9963478893E+00
 -0.2140000105E+01  0.2877842188E+00  0.9963484854E+00
 -0.2140000105E+01  0.2890686393E+00  0.9963490814E+00
 -0.2140000105E+01  0.2903530300E+00  0.9963496029E+00
 -0.2140000105E+01  0.2916374505E+00  0.9963501245E+00
 -0.2140000105E+01  0.2929218411E+00  0.9963506460E+00
 -0.2140000105E+01  0.2942062616E+00  0.9963511676E+00
 -0.2140000105E+01  0.2954906523E+00  0.9963516891E+00
 -0.2140000105E+01  0.2967750728E+00  0.9963522106E+00
 -0.2140000105E+01  0.2980594635E+00  0.9963527322E+00
 -0.2140000105E+01  0.2993438840E+00  0.9963532537E+00
 -0.2140000105E+01  0.3006282747E+00  0.9963538498E+00
 -0.2140000105E+01  0.3019126952E+00  0.9963542968E+00
 -0.2140000105E+01  0.3031971157E+00  0.9963548183E+00
 -0.2140000105E+01  0.3044815063E+00  0.9963552654E+00
 -0.2140000105E+01  0.3057659268E+00  0.9963557124E+00
 -0.2140000105E+01  0.3070503175E+00  0.9963561594E+00
 -0.2140000105E+01  0.3083347380E+00  0.9963566810E+00
 -0.2140000105E+01  0.3096191287E+00  0.9963571280E+00
 -0.2140000105E+01  0.3109035492E+00  0.9963575751E+00
 -0.2140000105E+01  0.3121879399E+00  0.9963580966E+00
 -0.2140000105E+01  0.3134723604E+00  0.9963585436E+00
 -0.2140000105E+01  0.3147567511E+00  0.9963589907E+00
 -0.2140000105E+01  0.3160411716E+00  0.9963594377E+00
 -0.2140000105E+01  0.3173255622E+00  0.9963598102E+00
 -0.2140000105E+01  0.3186099827E+00  0.9963602573E+00
 -0.2140000105E+01  0.3198943734E+00  0.9963606298E+00
 -0.2140000105E+01  0.3211787939E+00  0.9963610768E+00
 -0.2140000105E+01  0.3224632144E+00  0.9963615239E+00
 -0.2140000105E+01  0.3237476051E+00  0.9963618964E+00
 -0.2140000105E+01  0.3250320256E+00  0.9963623434E+00
 -0.2140000105E+01  0.3263164163E+00  0.9963627905E+00
 -0.2140000105E+01  0.3276008368E+00  0.9963631630E+00
 -0.2140000105E+01  0.3288852274E+00  0.9963636100E+00
 -0.2140000105E+01  0.3301696479E+00  0.9963639826E+00
 -0.2140000105E+01  0.3314540386E+00  0.9963643551E+00
 -0.2140000105E+01  0.3327384591E+00  0.9963647276E+00
 -0.2140000105E+01  0.3340228498E+00  0.9963651001E+00
 -0.2140000105E+01  0.3353072703E+00  0.9963654727E+00
 -0.2140000105E+01  0.3365916610E+00  0.9963658452E+00
 -0.2140000105E+01  0.3378760815E+00  0.9963662177E+00
 -0.2140000105E+01  0.3391605020E+00  0.9963665903E+00
 -0.2140000105E+01  0.3404448926E+00  0.9963669628E+00
 -0.2140000105E+01  0.3417293131E+00  0.9963673353E+00
 -0.2140000105E+01  0.3430137038E+00  0.9963677078E+00
 -0.2140000105E+01  0.3442981243E+00  0.9963680059E+00
 -0.2140000105E+01  0.3455825150E+00  0.9963683784E+00
 -0.2140000105E+01  0.3468669355E+00  0.9963686764E+00
 -0.2140000105E+01  0.3481513262E+00  0.9963690490E+00
 -0.2140000105E+01  0.3494357467E+00  0.9963693470E+00
 -0.2140000105E+01  0.3507201374E+00  0.9963697195E+00
 -0.2140000105E+01  0.3520045578E+00  0.9963700175E+00
 -0.2140000105E+01  0.3532889485E+00  0.9963703901E+00
 -0.2140000105E+01  0.3545733690E+00  0.9963706881E+00
 -0.2140000105E+01  0.3558577597E+00  0.9963710606E+00
 -0.2140000105E+01  0.3571421802E+00  0.9963713586E+00
 -0.2140000105E+01  0.3584266007E+00  0.9963716567E+00
 -0.2140000105E+01  0.3597109914E+00  0.9963719547E+00
 -0.2140000105E+01  0.3609954119E+00  0.9963722527E+00
 -0.2140000105E+01  0.3622798026E+00  0.9963725507E+00
 -0.2140000105E+01  0.3635642231E+00  0.9963727742E+00
 -0.2140000105E+01  0.3648486137E+00  0.9963730723E+00
 -0.2140000105E+01  0.3661330342E+00  0.9963733703E+00
 -0.2140000105E+01  0.3674174249E+00  0.9963736683E+00
 -0.2140000105E+01  0.3687018454E+00  0.9963739663E+00
 -0.2140000105E+01  0.3699862361E+00  0.9963741899E+00
 -0.2140000105E+01  0.3712706566E+00  0.9963744879E+00
 -0.2140000105E+01  0.3725550473E+00  0.9963747859E+00
 -0.2140000105E+01  0.3738394678E+00  0.9963750094E+00
 -0.2140000105E+01  0.3751238585E+00  0.9963753074E+00
 -0.2140000105E+01  0.3764082789E+00  0.9963755310E+00
 -0.2140000105E+01  0.3776926994E+00  0.9963758290E+00
 -0.2140000105E+01  0.3789770901E+00  0.9963760525E+00
 -0.2140000105E+01  0.3802615106E+00  0.9963763505E+00
 -0.2140000105E+01  0.3815459013E+00  0.9963765740E+00
 -0.2140000105E+01  0.3828303218E+00  0.9963767976E+00
 -0.2140000105E+01  0.3841147125E+00  0.9963770956E+00
ZONE T="x/c=0.65"                                                               
  0.6499999762E+00  0.1161499992E+00  0.1751001109E-02
  0.6499999762E+00  0.1161757037E+00  0.1404416631E-01
  0.6499999762E+00  0.1161819994E+00  0.1748384559E-01
  0.6499999762E+00  0.1161884964E+00  0.2121729311E-01
  0.6499999762E+00  0.1161950976E+00  0.2519674366E-01
  0.6499999762E+00  0.1162016988E+00  0.2935936209E-01
  0.6499999762E+00  0.1162085012E+00  0.3384132404E-01
  0.6499999762E+00  0.1162153035E+00  0.3851203015E-01
  0.6499999762E+00  0.1162222996E+00  0.4349995870E-01
  0.6499999762E+00  0.1162293032E+00  0.4868496209E-01
  0.6499999762E+00  0.1162365004E+00  0.5420659203E-01
  0.6499999762E+00  0.1162438020E+00  0.5999020301E-01
  0.6499999762E+00  0.1162512973E+00  0.6610675715E-01
  0.6499999762E+00  0.1162588969E+00  0.7247028407E-01
  0.6499999762E+00  0.1162666976E+00  0.7913563401E-01
  0.6499999762E+00  0.1162746996E+00  0.8608000353E-01
  0.6499999762E+00  0.1162827983E+00  0.9319544770E-01
  0.6499999762E+00  0.1162912026E+00  0.1006124727E+00
  0.6499999762E+00  0.1162997037E+00  0.1081069838E+00
  0.6499999762E+00  0.1163085029E+00  0.1158190984E+00
  0.6499999762E+00  0.1163175032E+00  0.1236174721E+00
  0.6499999762E+00  0.1163268983E+00  0.1316154562E+00
  0.6499999762E+00  0.1163363978E+00  0.1395299472E+00
  0.6499999762E+00  0.1163462996E+00  0.1475726161E+00
  0.6499999762E+00  0.1163564995E+00  0.1556135621E+00
  0.6499999762E+00  0.1163669974E+00  0.1636220701E+00
  0.6499999762E+00  0.1163778976E+00  0.1716522872E+00
  0.6499999762E+00  0.1163891032E+00  0.1795819402E+00
  0.6499999762E+00  0.1164008006E+00  0.1875425875E+00
  0.6499999762E+00  0.1164128035E+00  0.1953935064E+00
  0.6499999762E+00  0.1164252982E+00  0.2032477222E+00
  0.6499999762E+00  0.1164382026E+00  0.2110373974E+00
  0.6499999762E+00  0.1164515987E+00  0.2187993750E+00
  0.6499999762E+00  0.1164655015E+00  0.2265325189E+00
  0.6499999762E+00  0.1164799035E+00  0.2342263609E+00
  0.6499999762E+00  0.1164949015E+00  0.2419213019E+00
  0.6499999762E+00  0.1165105030E+00  0.2496062964E+00
  0.6499999762E+00  0.1165267006E+00  0.2572704665E+00
  0.6499999762E+00  0.1165435016E+00  0.2649140172E+00
  0.6499999762E+00  0.1165610030E+00  0.2725626715E+00
  0.6499999762E+00  0.1165791005E+00  0.2801722661E+00
  0.6499999762E+00  0.1165980995E+00  0.2878516540E+00
  0.6499999762E+00  0.1166177019E+00  0.2954787202E+00
  0.6499999762E+00  0.1166381985E+00  0.3031508997E+00
  0.6499999762E+00  0.1166594997E+00  0.3108142875E+00
  0.6499999762E+00  0.1166817024E+00  0.3185090050E+00
  0.6499999762E+00  0.1167049035E+00  0.3262566030E+00
  0.6499999762E+00  0.1167289019E+00  0.3339821845E+00
  0.6499999762E+00  0.1167540029E+00  0.3417728841E+00
  0.6499999762E+00  0.1167801023E+00  0.3495870531E+00
  0.6499999762E+00  0.1168072969E+00  0.3574449196E+00
  0.6499999762E+00  0.1168356985E+00  0.3653679043E+00
  0.6499999762E+00  0.1168652996E+00  0.3733468428E+00
  0.6499999762E+00  0.1168961003E+00  0.3813699260E+00
  0.6499999762E+00  0.1169281974E+00  0.3894534335E+00
  0.6499999762E+00  0.1169617027E+00  0.3976146132E+00
  0.6499999762E+00  0.1169964969E+00  0.4058141261E+00
  0.6499999762E+00  0.1170329005E+00  0.4141183197E+00
  0.6499999762E+00  0.1170708016E+00  0.4224896803E+00
  0.6499999762E+00  0.1171104014E+00  0.4309596866E+00
  0.6499999762E+00  0.1171516031E+00  0.4394956678E+00
  0.6499999762E+00  0.1171946004E+00  0.4481244832E+00
  0.6499999762E+00  0.1172394976E+00  0.4568509758E+00
  0.6499999762E+00  0.1172861978E+00  0.4656434059E+00
  0.6499999762E+00  0.1173349991E+00  0.4745431617E+00
  0.6499999762E+00  0.1173857972E+00  0.4835144803E+00
  0.6499999762E+00  0.1174388975E+00  0.4925925285E+00
  0.6499999762E+00  0.1174942032E+00  0.5017454922E+00
  0.6499999762E+00  0.1175519004E+00  0.5109865963E+00
  0.6499999762E+00  0.1176121011E+00  0.5203151330E+00
  0.6499999762E+00  0.1176747978E+00  0.5297133327E+00
  0.6499999762E+00  0.1177403033E+00  0.5392089486E+00
  0.6499999762E+00  0.1178086028E+00  0.5487808213E+00
  0.6499999762E+00  0.1178798974E+00  0.5584353954E+00
  0.6499999762E+00  0.1179542020E+00  0.5681600422E+00
  0.6499999762E+00  0.1180317029E+00  0.5779577419E+00
  0.6499999762E+00  0.1181124970E+00  0.5878242850E+00
  0.6499999762E+00  0.1181968972E+00  0.5977763236E+00
  0.6499999762E+00  0.1182847992E+00  0.6077835709E+00
  0.6499999762E+00  0.1183765978E+00  0.6178696454E+00
  0.6499999762E+00  0.1184723973E+00  0.6280265003E+00
  0.6499999762E+00  0.1185721979E+00  0.6382331997E+00
  0.6499999762E+00  0.1186764017E+00  0.6485074013E+00
  0.6499999762E+00  0.1187850013E+00  0.6588311493E+00
  0.6499999762E+00  0.1188983992E+00  0.6692231447E+00
  0.6499999762E+00  0.1190166026E+00  0.6796612591E+00
  0.6499999762E+00  0.1191399992E+00  0.6901578605E+00
  0.6499999762E+00  0.1192686036E+00  0.7006935030E+00
  0.6499999762E+00  0.1194028035E+00  0.7112768292E+00
  0.6499999762E+00  0.1195427999E+00  0.7218996435E+00
  0.6499999762E+00  0.1196888983E+00  0.7325609773E+00
  0.6499999762E+00  0.1198412031E+00  0.7432433963E+00
  0.6499999762E+00  0.1200001016E+00  0.7539500296E+00
  0.6499999762E+00  0.1201658994E+00  0.7646747679E+00
  0.6499999762E+00  0.1203389019E+00  0.7754103839E+00
  0.6499999762E+00  0.1205193028E+00  0.7861419022E+00
  0.6499999762E+00  0.1207074970E+00  0.7968615741E+00
  0.6499999762E+00  0.1209039018E+00  0.8075617254E+00
  0.6499999762E+00  0.1211087033E+00  0.8182192594E+00
  0.6499999762E+00  0.1213224977E+00  0.8288297802E+00
  0.6499999762E+00  0.1215455011E+00  0.8393663168E+00
  0.6499999762E+00  0.1217781976E+00  0.8498118818E+00
  0.6499999762E+00  0.1220211014E+00  0.8601459861E+00
  0.6499999762E+00  0.1222745031E+00  0.8703380078E+00
  0.6499999762E+00  0.1225389019E+00  0.8803629875E+00
  0.6499999762E+00  0.1228149012E+00  0.8901961148E+00
  0.6499999762E+00  0.1231029034E+00  0.8998046070E+00
  0.6499999762E+00  0.1234034970E+00  0.9091641009E+00
  0.6499999762E+00  0.1237171963E+00  0.9182469547E+00
  0.6499999762E+00  0.1240447015E+00  0.9270323068E+00
  0.6499999762E+00  0.1243864968E+00  0.9354966879E+00
  0.6499999762E+00  0.1247432977E+00  0.9436315298E+00
  0.6499999762E+00  0.1251157969E+00  0.9514348209E+00
  0.6499999762E+00  0.1255044937E+00  0.9589054435E+00
  0.6499999762E+00  0.1259101927E+00  0.9660562128E+00
  0.6499999762E+00  0.1263336986E+00  0.9729029983E+00
  0.6499999762E+00  0.1267755926E+00  0.9794570506E+00
  0.6499999762E+00  0.1272369027E+00  0.9857459366E+00
  0.6499999762E+00  0.1277181953E+00  0.9917903692E+00
  0.6499999762E+00  0.1282204986E+00  0.9976170957E+00
  0.6499999762E+00  0.1287447959E+00  0.1003251150E+01
  0.6499999762E+00  0.1292918026E+00  0.1008706316E+01
  0.6499999762E+00  0.1298626065E+00  0.1014005989E+01
  0.6499999762E+00  0.1304582059E+00  0.1019169390E+01
  0.6499999762E+00  0.1310797036E+00  0.1024221331E+01
  0.6499999762E+00  0.1317282021E+00  0.1029180288E+01
  0.6499999762E+00  0.1324048936E+00  0.1034066230E+01
  0.6499999762E+00  0.1331108958E+00  0.1038890630E+01
  0.6499999762E+00  0.1338475943E+00  0.1043663919E+01
  0.6499999762E+00  0.1346161962E+00  0.1048393399E+01
  0.6499999762E+00  0.1354182065E+00  0.1053090319E+01
  0.6499999762E+00  0.1362549067E+00  0.1057763249E+01
  0.6499999762E+00  0.1371279955E+00  0.1062420532E+01
  0.6499999762E+00  0.1380387992E+00  0.1067070812E+01
  0.6499999762E+00  0.1389891952E+00  0.1071724221E+01
  0.6499999762E+00  0.1399807930E+00  0.1076387987E+01
  0.6499999762E+00  0.1410153955E+00  0.1081070900E+01
  0.6499999762E+00  0.1420948058E+00  0.1085780412E+01
  0.6499999762E+00  0.1432210058E+00  0.1090524271E+01
  0.6499999762E+00  0.1443960965E+00  0.1095309705E+01
  0.6499999762E+00  0.1456221044E+00  0.1100142971E+01
  0.6499999762E+00  0.1469012052E+00  0.1105029359E+01
  0.6499999762E+00  0.1482359022E+00  0.1109974980E+01
  0.6499999762E+00  0.1496284008E+00  0.1114983708E+01
  0.6499999762E+00  0.1510812938E+00  0.1120062619E+01
  0.6499999762E+00  0.1525972933E+00  0.1125224456E+01
  0.6499999762E+00  0.1541790068E+00  0.1130476594E+01
  0.6499999762E+00  0.1558292955E+00  0.1135823205E+01
  0.6499999762E+00  0.1575511992E+00  0.1141261831E+01
  0.6499999762E+00  0.1593476981E+00  0.1146793589E+01
  0.6499999762E+00  0.1612222940E+00  0.1152416542E+01
  0.6499999762E+00  0.1631781012E+00  0.1158129200E+01
  0.6499999762E+00  0.1652188003E+00  0.1163923293E+01
  0.6499999762E+00  0.1673479974E+00  0.1169790179E+01
  0.6499999762E+00  0.1695697010E+00  0.1175710037E+01
  0.6499999762E+00  0.1718876958E+00  0.1181657240E+01
  0.6499999762E+00  0.1743061990E+00  0.1187583357E+01
  0.6499999762E+00  0.1768296957E+00  0.1193424836E+01
  0.6499999762E+00  0.1794627011E+00  0.1199105904E+01
  0.6499999762E+00  0.1822099984E+00  0.1204558685E+01
  0.6499999762E+00  0.1850764006E+00  0.1209680662E+01
  0.6499999762E+00  0.1880671978E+00  0.1214310750E+01
  0.6499999762E+00  0.1911877990E+00  0.1218242794E+01
  0.6499999762E+00  0.1944438070E+00  0.1221269518E+01
  0.6499999762E+00  0.1978410035E+00  0.1223228127E+01
  0.6499999762E+00  0.2013857067E+00  0.1224064827E+01
  0.6499999762E+00  0.2050842047E+00  0.1223895922E+01
  0.6499999762E+00  0.2089432031E+00  0.1223008037E+01
  0.6499999762E+00  0.2129696012E+00  0.1221777946E+01
  0.6499999762E+00  0.2171707004E+00  0.1220505834E+01
  0.6499999762E+00  0.2215541005E+00  0.1219327003E+01
  0.6499999762E+00  0.2261276990E+00  0.1218229160E+01
  0.6499999762E+00  0.2308997959E+00  0.1217150167E+01
  0.6499999762E+00  0.2358788997E+00  0.1216043010E+01
  0.6499999762E+00  0.2410741001E+00  0.1214880049E+01
  0.6499999762E+00  0.2464946955E+00  0.1213653535E+01
  0.6499999762E+00  0.2521505058E+00  0.1212360486E+01
  0.6499999762E+00  0.2580518126E+00  0.1210999116E+01
  0.6499999762E+00  0.2642090023E+00  0.1209571585E+01
  0.6499999762E+00  0.2706334889E+00  0.1208079010E+01
  0.6499999762E+00  0.2773366868E+00  0.1206520423E+01
  0.6499999762E+00  0.2843307853E+00  0.1204894930E+01
  0.6499999762E+00  0.2916283906E+00  0.1203200370E+01
  0.6499999762E+00  0.2992425859E+00  0.1201436147E+01
  0.6499999762E+00  0.3071871996E+00  0.1199609712E+01
  0.6499999762E+00  0.3154765964E+00  0.1197728291E+01
  0.6499999762E+00  0.3241255879E+00  0.1195788905E+01
  0.6499999762E+00  0.3331499100E+00  0.1193789467E+01
  0.6499999762E+00  0.3425656855E+00  0.1191735789E+01
  0.6499999762E+00  0.3523901999E+00  0.1189633980E+01
  0.6499999762E+00  0.3626408875E+00  0.1187481359E+01
  0.6499999762E+00  0.3733364046E+00  0.1185282618E+01
  0.6499999762E+00  0.3844959140E+00  0.1183046550E+01
  0.6499999762E+00  0.3961397111E+00  0.1180777475E+01
  0.6499999762E+00  0.4082886875E+00  0.1178478673E+01
  0.6499999762E+00  0.4209648073E+00  0.1176156029E+01
  0.6499999762E+00  0.4341908991E+00  0.1173815653E+01
  0.6499999762E+00  0.4479908943E+00  0.1171464026E+01
  0.6499999762E+00  0.4623895884E+00  0.1169108376E+01
  0.6499999762E+00  0.4774130881E+00  0.1166754663E+01
  0.6499999762E+00  0.4930885136E+00  0.1164410934E+01
  0.6499999762E+00  0.5094438791E+00  0.1162084565E+01
  0.6499999762E+00  0.5265089869E+00  0.1159783453E+01
  0.6499999762E+00  0.5443145037E+00  0.1157515571E+01
  0.6499999762E+00  0.5628924966E+00  0.1155288890E+01
  0.6499999762E+00  0.5822765231E+00  0.1153111234E+01
  0.6499999762E+00  0.6025015712E+00  0.1150990203E+01
  0.6499999762E+00  0.6236041188E+00  0.1148933172E+01
  0.6499999762E+00  0.6456223130E+00  0.1146946102E+01
  0.6499999762E+00  0.6685956120E+00  0.1145033985E+01
  0.6499999762E+00  0.6925656796E+00  0.1143201292E+01
  0.6499999762E+00  0.7175757289E+00  0.1141439825E+01
  0.6499999762E+00  0.7436707020E+00  0.1139737591E+01
  0.6499999762E+00  0.7708979249E+00  0.1138068736E+01
  0.6499999762E+00  0.7993062735E+00  0.1136697084E+01
  0.6499999762E+00  0.8289471269E+00  0.1135901660E+01
  0.6499999762E+00  0.8598734736E+00  0.1133388579E+01
  0.6499999762E+00  0.8921396732E+00  0.1131109223E+01
ZONE T="x/c=0.8"                                                                
  0.8000000119E+00  0.2460199967E-01 -0.6240544735E-04
  0.8000000119E+00  0.2461059950E-01 -0.1933948661E-02
  0.8000000119E+00  0.2461968921E-01 -0.3918972507E-02
  0.8000000119E+00  0.2462900989E-01 -0.5959664122E-02
  0.8000000119E+00  0.2463857085E-01 -0.8055834915E-02
  0.8000000119E+00  0.2464839071E-01 -0.1021374250E-01
  0.8000000119E+00  0.2465848066E-01 -0.1243472332E-01
  0.8000000119E+00  0.2466885932E-01 -0.1471794210E-01
  0.8000000119E+00  0.2467953973E-01 -0.1708106371E-01
  0.8000000119E+00  0.2469055913E-01 -0.1952314749E-01
  0.8000000119E+00  0.2470193058E-01 -0.2204827033E-01
  0.8000000119E+00  0.2471365966E-01 -0.2465061378E-01
  0.8000000119E+00  0.2472578920E-01 -0.2735675778E-01
  0.8000000119E+00  0.2473831922E-01 -0.3015394090E-01
  0.8000000119E+00  0.2475129999E-01 -0.3305371618E-01
  0.8000000119E+00  0.2476472966E-01 -0.3605130361E-01
  0.8000000119E+00  0.2477863990E-01 -0.3916125745E-01
  0.8000000119E+00  0.2479306050E-01 -0.4238033667E-01
  0.8000000119E+00  0.2480801009E-01 -0.4570156336E-01
  0.8000000119E+00  0.2482352033E-01 -0.4912996199E-01