# CFL3D results for NASA wall-mounted hump, 817 x 217 grid, no plenum, SA-RC model
VARIABLES = "x/c","y/c","u'v'/(Uref^2)"
ZONE T="x/c=-2.14"
 -2.140000105E+00 7.713619561E-05 -5.869331744E-06
 -2.140000105E+00 1.361542847E-03 -1.326477388E-03
 -2.140000105E+00 2.645949367E-03 -1.351892832E-03
 -2.140000105E+00 3.930355888E-03 -1.352551044E-03
 -2.140000105E+00 5.214762874E-03 -1.346306526E-03
 -2.140000105E+00 6.499169394E-03 -1.336593647E-03
 -2.140000105E+00 7.783575915E-03 -1.324616023E-03
 -2.140000105E+00 9.067982435E-03 -1.310910680E-03
 -2.140000105E+00 1.035238896E-02 -1.295706723E-03
 -2.140000105E+00 1.163679548E-02 -1.279189717E-03
 -2.140000105E+00 1.292120293E-02 -1.261433354E-03
 -2.140000105E+00 1.420560945E-02 -1.242535654E-03
 -2.140000105E+00 1.549001597E-02 -1.222540275E-03
 -2.140000105E+00 1.677442156E-02 -1.201483537E-03
 -2.140000105E+00 1.805882901E-02 -1.179419458E-03
 -2.140000105E+00 1.934323646E-02 -1.156369108E-03
 -2.140000105E+00 2.062764205E-02 -1.132325619E-03
 -2.140000105E+00 2.191204950E-02 -1.107393415E-03
 -2.140000105E+00 2.319645509E-02 -1.081560040E-03
 -2.140000105E+00 2.448086254E-02 -1.054814667E-03
 -2.140000105E+00 2.576526813E-02 -1.027266379E-03
 -2.140000105E+00 2.704967558E-02 -9.989308892E-04
 -2.140000105E+00 2.833408304E-02 -9.698301437E-04
 -2.140000105E+00 2.961848862E-02 -9.399921983E-04
 -2.140000105E+00 3.090289608E-02 -9.094517445E-04
 -2.140000105E+00 3.218730167E-02 -8.782508667E-04
 -2.140000105E+00 3.347170725E-02 -8.464381099E-04
 -2.140000105E+00 3.475611657E-02 -8.140682476E-04
 -2.140000105E+00 3.604052216E-02 -7.812013500E-04
 -2.140000105E+00 3.732492775E-02 -7.478997577E-04
 -2.140000105E+00 3.860933334E-02 -7.142247632E-04
 -2.140000105E+00 3.989374265E-02 -6.801857962E-04
 -2.140000105E+00 4.117814824E-02 -6.458527641E-04
 -2.140000105E+00 4.246255383E-02 -6.113624549E-04
 -2.140000105E+00 4.374696314E-02 -5.767589319E-04
 -2.140000105E+00 4.503136873E-02 -5.420963280E-04
 -2.140000105E+00 4.631577432E-02 -5.075119552E-04
 -2.140000105E+00 4.760017991E-02 -4.730063083E-04
 -2.140000105E+00 4.888458923E-02 -4.388299421E-04
 -2.140000105E+00 5.016899481E-02 -4.049712443E-04
 -2.140000105E+00 5.145340040E-02 -3.714498889E-04
 -2.140000105E+00 5.273780972E-02 -3.387523466E-04
 -2.140000105E+00 5.402221531E-02 -3.063408949E-04
 -2.140000105E+00 5.530662090E-02 -2.752940345E-04
 -2.140000105E+00 5.659102648E-02 -2.447306179E-04
 -2.140000105E+00 5.787543580E-02 -2.156808478E-04
 -2.140000105E+00 5.915984139E-02 -1.875322487E-04
 -2.140000105E+00 6.044424698E-02 -1.611277985E-04
 -2.140000105E+00 6.172865629E-02 -1.359396847E-04
 -2.140000105E+00 6.301306188E-02 -1.129450175E-04
 -2.140000105E+00 6.429746747E-02 -9.117680020E-05
 -2.140000105E+00 6.558187306E-02 -7.245908637E-05
 -2.140000105E+00 6.686627865E-02 -5.439751476E-05
 -2.140000105E+00 6.815068424E-02 -4.084836837E-05
 -2.140000105E+00 6.943509728E-02 -2.729887819E-05
 -2.140000105E+00 7.071950287E-02 -1.879476258E-05
 -2.140000105E+00 7.200390846E-02 -1.102172882E-05
 -2.140000105E+00 7.328831404E-02 -5.907232662E-06
 -2.140000105E+00 7.457271963E-02 -3.225975661E-06
 -2.140000105E+00 7.585712522E-02 -7.096870718E-07
 -2.140000105E+00 7.714153081E-02 -4.276095922E-07
 -2.140000105E+00 7.842594385E-02 -1.455625096E-07
 -2.140000105E+00 7.971034944E-02 -5.722765817E-09
 -2.140000105E+00 8.099475503E-02 -3.075744326E-09
 -2.140000105E+00 8.227916062E-02 -4.282514621E-10
 -2.140000105E+00 8.356356621E-02 -7.871220342E-11
 -2.140000105E+00 8.484797180E-02 -1.728686777E-10
 -2.140000105E+00 8.613237739E-02 -2.619321704E-10
 -2.140000105E+00 8.741679043E-02 -2.569010837E-10
 -2.140000105E+00 8.870119601E-02 -2.518698861E-10
 -2.140000105E+00 8.998560160E-02 -2.475798733E-10
 -2.140000105E+00 9.127000719E-02 -2.477053007E-10
 -2.140000105E+00 9.255441278E-02 -2.478307282E-10
 -2.140000105E+00 9.383881837E-02 -2.477807404E-10
 -2.140000105E+00 9.512322396E-02 -2.463092230E-10
 -2.140000105E+00 9.640763700E-02 -2.448376779E-10
 -2.140000105E+00 9.769204259E-02 -2.433661606E-10
 -2.140000105E+00 9.897644818E-02 -2.423397039E-10
 -2.140000105E+00 1.002608538E-01 -2.413395039E-10
 -2.140000105E+00 1.015452594E-01 -2.403393040E-10
 -2.140000105E+00 1.028296649E-01 -2.392064880E-10
 -2.140000105E+00 1.041140705E-01 -2.379995090E-10
 -2.140000105E+00 1.053984836E-01 -2.367925578E-10
 -2.140000105E+00 1.066828892E-01 -2.355862450E-10
 -2.140000105E+00 1.079672948E-01 -2.343827077E-10
 -2.140000105E+00 1.092517003E-01 -2.331791427E-10
 -2.140000105E+00 1.105361059E-01 -2.319755915E-10
 -2.140000105E+00 1.118205115E-01 -2.307558450E-10
 -2.140000105E+00 1.131049171E-01 -2.295252877E-10
 -2.140000105E+00 1.143893301E-01 -2.282947442E-10
 -2.140000105E+00 1.156737357E-01 -2.270641730E-10
 -2.140000105E+00 1.169581413E-01 -2.258224441E-10
 -2.140000105E+00 1.182425469E-01 -2.245787029E-10
 -2.140000105E+00 1.195269525E-01 -2.233349755E-10
 -2.140000105E+00 1.208113581E-01 -2.220912343E-10
 -2.140000105E+00 1.220957637E-01 -2.208442734E-10
 -2.140000105E+00 1.233801767E-01 -2.195970905E-10
 -2.140000105E+00 1.246645823E-01 -2.183499215E-10
 -2.140000105E+00 1.259489805E-01 -2.171027386E-10
 -2.140000105E+00 1.272333860E-01 -2.158566104E-10
 -2.140000105E+00 1.285178065E-01 -2.146106626E-10
 -2.140000105E+00 1.298022121E-01 -2.133647425E-10
 -2.140000105E+00 1.310866177E-01 -2.121187948E-10
 -2.140000105E+00 1.323710233E-01 -2.108761360E-10
 -2.140000105E+00 1.336554289E-01 -2.096357948E-10
 -2.140000105E+00 1.349398345E-01 -2.083954814E-10
 -2.140000105E+00 1.362242401E-01 -2.071551403E-10
 -2.140000105E+00 1.375086457E-01 -2.059160759E-10
 -2.140000105E+00 1.387930512E-01 -2.046848246E-10
 -2.140000105E+00 1.400774568E-01 -2.034535734E-10
 -2.140000105E+00 1.413618624E-01 -2.022223639E-10
 -2.140000105E+00 1.426462680E-01 -2.009911126E-10
 -2.140000105E+00 1.439306736E-01 -1.997670779E-10
 -2.140000105E+00 1.452150792E-01 -1.985502179E-10
 -2.140000105E+00 1.464994997E-01 -1.973333719E-10
 -2.140000105E+00 1.477839053E-01 -1.961165119E-10
 -2.140000105E+00 1.490683109E-01 -1.948996520E-10
 -2.140000105E+00 1.503527164E-01 -1.936956845E-10
 -2.140000105E+00 1.516371220E-01 -1.924983645E-10
 -2.140000105E+00 1.529215276E-01 -1.913010722E-10
 -2.140000105E+00 1.542059332E-01 -1.901037661E-10
 -2.140000105E+00 1.554903388E-01 -1.889064460E-10
 -2.140000105E+00 1.567747444E-01 -1.877236699E-10
 -2.140000105E+00 1.580591500E-01 -1.865502336E-10
 -2.140000105E+00 1.593435556E-01 -1.853767834E-10
 -2.140000105E+00 1.606279612E-01 -1.842033887E-10
 -2.140000105E+00 1.619123667E-01 -1.830299384E-10
 -2.140000105E+00 1.631967723E-01 -1.818657724E-10
 -2.140000105E+00 1.644811779E-01 -1.807196476E-10
 -2.140000105E+00 1.657655984E-01 -1.795734950E-10
 -2.140000105E+00 1.670500040E-01 -1.784274117E-10
 -2.140000105E+00 1.683344096E-01 -1.772812869E-10
 -2.140000105E+00 1.696188152E-01 -1.761351620E-10
 -2.140000105E+00 1.709032208E-01 -1.750143364E-10
 -2.140000105E+00 1.721876264E-01 -1.738983263E-10
 -2.140000105E+00 1.734720320E-01 -1.727823162E-10
 -2.140000105E+00 1.747564375E-01 -1.716663478E-10
 -2.140000105E+00 1.760408431E-01 -1.705503377E-10
 -2.140000105E+00 1.773252487E-01 -1.694376722E-10
 -2.140000105E+00 1.786096543E-01 -1.683540807E-10
 -2.140000105E+00 1.798940599E-01 -1.672705030E-10
 -2.140000105E+00 1.811784655E-01 -1.661869670E-10
 -2.140000105E+00 1.824628711E-01 -1.651033893E-10
 -2.140000105E+00 1.837472916E-01 -1.640197977E-10
 -2.140000105E+00 1.850316972E-01 -1.629402308E-10
 -2.140000105E+00 1.863161027E-01 -1.618910700E-10
 -2.140000105E+00 1.876005083E-01 -1.608418954E-10
 -2.140000105E+00 1.888849139E-01 -1.597927346E-10
 -2.140000105E+00 1.901693195E-01 -1.587436016E-10
 -2.140000105E+00 1.914537251E-01 -1.576944408E-10
 -2.140000105E+00 1.927381307E-01 -1.566452662E-10
 -2.140000105E+00 1.940225363E-01 -1.556274831E-10
 -2.140000105E+00 1.953069419E-01 -1.546143630E-10
 -2.140000105E+00 1.965913475E-01 -1.536012290E-10
 -2.140000105E+00 1.978757530E-01 -1.525881504E-10
 -2.140000105E+00 1.991601586E-01 -1.515750164E-10
 -2.140000105E+00 2.004445642E-01 -1.505618963E-10
 -2.140000105E+00 2.017289847E-01 -1.495619462E-10
 -2.140000105E+00 2.030133903E-01 -1.485861295E-10
 -2.140000105E+00 2.042977959E-01 -1.476103129E-10
 -2.140000105E+00 2.055822015E-01 -1.466344962E-10
 -2.140000105E+00 2.068666071E-01 -1.456587212E-10
 -2.140000105E+00 2.081510127E-01 -1.446829045E-10
 -2.140000105E+00 2.094354182E-01 -1.437070879E-10
 -2.140000105E+00 2.107198238E-01 -1.427527263E-10
 -2.140000105E+00 2.120042294E-01 -1.418156426E-10
 -2.140000105E+00 2.132886350E-01 -1.408785727E-10
 -2.140000105E+00 2.145730406E-01 -1.399415306E-10
 -2.140000105E+00 2.158574462E-01 -1.390044607E-10
 -2.140000105E+00 2.171418518E-01 -1.380673909E-10
 -2.140000105E+00 2.184262574E-01 -1.371303071E-10
 -2.140000105E+00 2.197106779E-01 -1.362115282E-10
 -2.140000105E+00 2.209950835E-01 -1.353143431E-10
 -2.140000105E+00 2.222794890E-01 -1.344171580E-10
 -2.140000105E+00 2.235638946E-01 -1.335199729E-10
 -2.140000105E+00 2.248483002E-01 -1.326228294E-10
 -2.140000105E+00 2.261327058E-01 -1.317256582E-10
 -2.140000105E+00 2.274171114E-01 -1.308284731E-10
 -2.140000105E+00 2.287015170E-01 -1.299335500E-10
 -2.140000105E+00 2.299859226E-01 -1.290769019E-10
 -2.140000105E+00 2.312703282E-01 -1.282202539E-10
 -2.140000105E+00 2.325547338E-01 -1.273636058E-10
 -2.140000105E+00 2.338391393E-01 -1.265069993E-10
 -2.140000105E+00 2.351235449E-01 -1.256503512E-10
 -2.140000105E+00 2.364079505E-01 -1.247936893E-10
 -2.140000105E+00 2.376923561E-01 -1.239370412E-10
 -2.140000105E+00 2.389767766E-01 -1.230939101E-10
 -2.140000105E+00 2.402611822E-01 -1.222780210E-10
 -2.140000105E+00 2.415455878E-01 -1.214621459E-10
 -2.140000105E+00 2.428299934E-01 -1.206462569E-10
 -2.140000105E+00 2.441143990E-01 -1.198304234E-10
 -2.140000105E+00 2.453988045E-01 -1.190145343E-10
 -2.140000105E+00 2.466832101E-01 -1.181986453E-10
 -2.140000105E+00 2.479676157E-01 -1.173827702E-10
 -2.140000105E+00 2.492520213E-01 -1.165780250E-10
 -2.140000105E+00 2.505364418E-01 -1.158030269E-10
 -2.140000105E+00 2.518208325E-01 -1.150280426E-10
 -2.140000105E+00 2.531052530E-01 -1.142530376E-10
 -2.140000105E+00 2.543896437E-01 -1.134780950E-10
 -2.140000105E+00 2.556740642E-01 -1.127030899E-10
 -2.140000105E+00 2.569584548E-01 -1.119281126E-10
 -2.140000105E+00 2.582428753E-01 -1.111531076E-10
 -2.140000105E+00 2.595272660E-01 -1.103781233E-10
 -2.140000105E+00 2.608116865E-01 -1.096384719E-10
 -2.140000105E+00 2.620960772E-01 -1.089044202E-10
 -2.140000105E+00 2.633804977E-01 -1.081703546E-10
 -2.140000105E+00 2.646648884E-01 -1.074363029E-10
 -2.140000105E+00 2.659493089E-01 -1.067022720E-10
 -2.140000105E+00 2.672337294E-01 -1.059682064E-10
 -2.140000105E+00 2.685181201E-01 -1.052341547E-10
 -2.140000105E+00 2.698025405E-01 -1.045000891E-10
 -2.140000105E+00 2.710869312E-01 -1.037696942E-10
 -2.140000105E+00 2.723713517E-01 -1.030763946E-10
 -2.140000105E+00 2.736557424E-01 -1.023831089E-10
 -2.140000105E+00 2.749401629E-01 -1.016898024E-10
 -2.140000105E+00 2.762245536E-01 -1.009965167E-10
 -2.140000105E+00 2.775089741E-01 -1.003032518E-10
 -2.140000105E+00 2.787933648E-01 -9.960996611E-11
 -2.140000105E+00 2.800777853E-01 -9.891665959E-11
 -2.140000105E+00 2.813621759E-01 -9.822337388E-11
 -2.140000105E+00 2.826465964E-01 -9.753007429E-11
 -2.140000105E+00 2.839310169E-01 -9.687480679E-11
 -2.140000105E+00 2.852154076E-01 -9.622218994E-11
 -2.140000105E+00 2.864998281E-01 -9.556956615E-11
 -2.140000105E+00 2.877842188E-01 -9.491694930E-11
 -2.140000105E+00 2.890686393E-01 -9.426435327E-11
 -2.140000105E+00 2.903530300E-01 -9.361173642E-11
 -2.140000105E+00 2.916374505E-01 -9.295911263E-11
 -2.140000105E+00 2.929218411E-01 -9.230649578E-11
 -2.140000105E+00 2.942062616E-01 -9.165386505E-11
 -2.140000105E+00 2.954906523E-01 -9.101675663E-11
 -2.140000105E+00 2.967750728E-01 -9.040457966E-11
 -2.140000105E+00 2.980594635E-01 -8.979241656E-11
 -2.140000105E+00 2.993438840E-01 -8.918023958E-11
 -2.140000105E+00 3.006282747E-01 -8.856807648E-11
 -2.140000105E+00 3.019126952E-01 -8.795592726E-11
 -2.140000105E+00 3.031971157E-01 -8.734375029E-11
 -2.140000105E+00 3.044815063E-01 -8.673158719E-11
 -2.140000105E+00 3.057659268E-01 -8.611940328E-11
 -2.140000105E+00 3.070503175E-01 -8.550724018E-11
 -2.140000105E+00 3.083347380E-01 -8.491164022E-11
 -2.140000105E+00 3.096191287E-01 -8.433921617E-11
 -2.140000105E+00 3.109035492E-01 -8.376678517E-11
 -2.140000105E+00 3.121879399E-01 -8.319436112E-11
 -2.140000105E+00 3.134723604E-01 -8.262193013E-11
 -2.140000105E+00 3.147567511E-01 -8.204953383E-11
 -2.140000105E+00 3.160411716E-01 -8.147710284E-11
 -2.140000105E+00 3.173255622E-01 -8.090467879E-11
 -2.140000105E+00 3.186099827E-01 -8.033224780E-11
 -2.140000105E+00 3.198943734E-01 -7.975982375E-11
 -2.140000105E+00 3.211787939E-01 -7.918810052E-11
 -2.140000105E+00 3.224632144E-01 -7.865456203E-11
 -2.140000105E+00 3.237476051E-01 -7.812103048E-11
 -2.140000105E+00 3.250320256E-01 -7.758749199E-11
 -2.140000105E+00 3.263164163E-01 -7.705396043E-11
 -2.140000105E+00 3.276008368E-01 -7.652041500E-11
 -2.140000105E+00 3.288852274E-01 -7.598691121E-11
 -2.140000105E+00 3.301696479E-01 -7.545336578E-11
 -2.140000105E+00 3.314540386E-01 -7.491983423E-11
 -2.140000105E+00 3.327384591E-01 -7.438629573E-11
 -2.140000105E+00 3.340228498E-01 -7.385276418E-11
 -2.140000105E+00 3.353072703E-01 -7.332560947E-11
 -2.140000105E+00 3.365916610E-01 -7.283003367E-11
 -2.140000105E+00 3.378760815E-01 -7.233445093E-11
 -2.140000105E+00 3.391605020E-01 -7.183886125E-11
 -2.140000105E+00 3.404448926E-01 -7.134328545E-11
 -2.140000105E+00 3.417293131E-01 -7.084769577E-11
 -2.140000105E+00 3.430137038E-01 -7.035214078E-11
 -2.140000105E+00 3.442981243E-01 -6.985655110E-11
 -2.140000105E+00 3.455825150E-01 -6.936097530E-11
 -2.140000105E+00 3.468669355E-01 -6.886539256E-11
 -2.140000105E+00 3.481513262E-01 -6.836981675E-11
 -2.140000105E+00 3.494357467E-01 -6.787422707E-11
 -2.140000105E+00 3.507201374E-01 -6.740992486E-11
 -2.140000105E+00 3.520045578E-01 -6.695123622E-11
 -2.140000105E+00 3.532889485E-01 -6.649256146E-11
 -2.140000105E+00 3.545733690E-01 -6.603387281E-11
 -2.140000105E+00 3.558577597E-01 -6.557519111E-11
 -2.140000105E+00 3.571421802E-01 -6.511650941E-11
 -2.140000105E+00 3.584266007E-01 -6.465782770E-11
 -2.140000105E+00 3.597109914E-01 -6.419915294E-11
 -2.140000105E+00 3.609954119E-01 -6.374046430E-11
 -2.140000105E+00 3.622798026E-01 -6.328178953E-11
 -2.140000105E+00 3.635642231E-01 -6.282310089E-11
 -2.140000105E+00 3.648486137E-01 -6.236568900E-11
 -2.140000105E+00 3.661330342E-01 -6.194274260E-11
 -2.140000105E+00 3.674174249E-01 -6.151981008E-11
 -2.140000105E+00 3.687018454E-01 -6.109686368E-11
 -2.140000105E+00 3.699862361E-01 -6.067393116E-11
 -2.140000105E+00 3.712706566E-01 -6.025098476E-11
 -2.140000105E+00 3.725550473E-01 -5.982805223E-11
 -2.140000105E+00 3.738394678E-01 -5.940511277E-11
 -2.140000105E+00 3.751238585E-01 -5.898217331E-11
 -2.140000105E+00 3.764082789E-01 -5.855923385E-11
 -2.140000105E+00 3.776926994E-01 -5.813628745E-11
 -2.140000105E+00 3.789770901E-01 -5.771335493E-11
 -2.140000105E+00 3.802615106E-01 -5.729040853E-11
 -2.140000105E+00 3.815459013E-01 -5.689201193E-11
 -2.140000105E+00 3.828303218E-01 -5.650358653E-11
 -2.140000105E+00 3.841147125E-01 -5.611516807E-11
ZONE T="x/c=0.65"
 6.499999762E-01 1.161499992E-01 -1.939879368E-09
 6.499999762E-01 1.161757037E-01 -4.607852588E-07
 6.499999762E-01 1.161819994E-01 -9.302267472E-07
 6.499999762E-01 1.161884964E-01 -1.742144264E-06
 6.499999762E-01 1.161950976E-01 -3.110954367E-06
 6.499999762E-01 1.162016988E-01 -5.185644113E-06
 6.499999762E-01 1.162085012E-01 -8.290765436E-06
 6.499999762E-01 1.162153035E-01 -1.265565970E-05
 6.499999762E-01 1.162222996E-01 -1.878081457E-05
 6.499999762E-01 1.162293032E-01 -2.694537397E-05
 6.499999762E-01 1.162365004E-01 -3.786376692E-05
 6.499999762E-01 1.162438020E-01 -5.202369721E-05
 6.499999762E-01 1.162512973E-01 -7.028073014E-05
 6.499999762E-01 1.162588969E-01 -9.313926421E-05
 6.499999762E-01 1.162666976E-01 -1.216163364E-04
 6.499999762E-01 1.162746996E-01 -1.566661376E-04
 6.499999762E-01 1.162827983E-01 -1.990302990E-04
 6.499999762E-01 1.162912026E-01 -2.498883987E-04
 6.499999762E-01 1.162997037E-01 -3.085012722E-04
 6.499999762E-01 1.163085029E-01 -3.761568223E-04
 6.499999762E-01 1.163175032E-01 -4.519801005E-04
 6.499999762E-01 1.163268983E-01 -5.371259176E-04
 6.499999762E-01 1.163363978E-01 -6.279073423E-04
 6.499999762E-01 1.163462996E-01 -7.258034893E-04
 6.499999762E-01 1.163564995E-01 -8.283046191E-04
 6.499999762E-01 1.163669974E-01 -9.335058276E-04
 6.499999762E-01 1.163778976E-01 -1.040515956E-03
 6.499999762E-01 1.163891032E-01 -1.146117458E-03
 6.499999762E-01 1.164008006E-01 -1.250056666E-03
 6.499999762E-01 1.164128035E-01 -1.349329483E-03
 6.499999762E-01 1.164252982E-01 -1.444541267E-03
 6.499999762E-01 1.164382026E-01 -1.534123789E-03
 6.499999762E-01 1.164515987E-01 -1.618107432E-03
 6.499999762E-01 1.164655015E-01 -1.696274616E-03
 6.499999762E-01 1.164799035E-01 -1.768447226E-03
 6.499999762E-01 1.164949015E-01 -1.835084753E-03
 6.499999762E-01 1.165105030E-01 -1.896355883E-03
 6.499999762E-01 1.165267006E-01 -1.952475286E-03
 6.499999762E-01 1.165435016E-01 -2.003722824E-03
 6.499999762E-01 1.165610030E-01 -2.050714567E-03
 6.499999762E-01 1.165791005E-01 -2.093454357E-03
 6.499999762E-01 1.165980995E-01 -2.132790862E-03
 6.499999762E-01 1.166177019E-01 -2.168689156E-03
 6.499999762E-01 1.166381985E-01 -2.201928990E-03
 6.499999762E-01 1.166594997E-01 -2.232624684E-03
 6.499999762E-01 1.166817024E-01 -2.261135262E-03
 6.499999762E-01 1.167049035E-01 -2.287785290E-03
 6.499999762E-01 1.167289019E-01 -2.312518656E-03
 6.499999762E-01 1.167540029E-01 -2.335831523E-03
 6.499999762E-01 1.167801023E-01 -2.357758814E-03
 6.499999762E-01 1.168072969E-01 -2.378507284E-03
 6.499999762E-01 1.168356985E-01 -2.398269251E-03
 6.499999762E-01 1.168652996E-01 -2.417125739E-03
 6.499999762E-01 1.168961003E-01 -2.435155446E-03
 6.499999762E-01 1.169281974E-01 -2.452492947E-03
 6.499999762E-01 1.169617027E-01 -2.469241852E-03
 6.499999762E-01 1.169964969E-01 -2.485400764E-03
 6.499999762E-01 1.170329005E-01 -2.501144074E-03
 6.499999762E-01 1.170708016E-01 -2.516442910E-03
 6.499999762E-01 1.171104014E-01 -2.531395992E-03
 6.499999762E-01 1.171516031E-01 -2.545977011E-03
 6.499999762E-01 1.171946004E-01 -2.560239518E-03
 6.499999762E-01 1.172394976E-01 -2.574204234E-03
 6.499999762E-01 1.172861978E-01 -2.587833907E-03
 6.499999762E-01 1.173349991E-01 -2.601171145E-03
 6.499999762E-01 1.173857972E-01 -2.614151919E-03
 6.499999762E-01 1.174388975E-01 -2.626809059E-03
 6.499999762E-01 1.174942032E-01 -2.639091108E-03
 6.499999762E-01 1.175519004E-01 -2.650971757E-03
 6.499999762E-01 1.176121011E-01 -2.662425395E-03
 6.499999762E-01 1.176747978E-01 -2.673386363E-03
 6.499999762E-01 1.177403033E-01 -2.683838597E-03
 6.499999762E-01 1.178086028E-01 -2.693699673E-03
 6.499999762E-01 1.178798974E-01 -2.702919068E-03
 6.499999762E-01 1.179542020E-01 -2.711429959E-03
 6.499999762E-01 1.180317029E-01 -2.719173441E-03
 6.499999762E-01 1.181124970E-01 -2.726078033E-03
 6.499999762E-01 1.181968972E-01 -2.732088091E-03
 6.499999762E-01 1.182847992E-01 -2.737103030E-03
 6.499999762E-01 1.183765978E-01 -2.741063945E-03
 6.499999762E-01 1.184723973E-01 -2.743882826E-03
 6.499999762E-01 1.185721979E-01 -2.745470498E-03
 6.499999762E-01 1.186764017E-01 -2.745747333E-03
 6.499999762E-01 1.187850013E-01 -2.744624158E-03
 6.499999762E-01 1.188983992E-01 -2.742011333E-03
 6.499999762E-01 1.190166026E-01 -2.737821313E-03
 6.499999762E-01 1.191399992E-01 -2.731960732E-03
 6.499999762E-01 1.192686036E-01 -2.724349033E-03
 6.499999762E-01 1.194028035E-01 -2.714888891E-03
 6.499999762E-01 1.195427999E-01 -2.703494858E-03
 6.499999762E-01 1.196888983E-01 -2.690073568E-03
 6.499999762E-01 1.198412031E-01 -2.674555406E-03
 6.499999762E-01 1.200001016E-01 -2.656847006E-03
 6.499999762E-01 1.201658994E-01 -2.636866644E-03
 6.499999762E-01 1.203389019E-01 -2.614538884E-03
 6.499999762E-01 1.205193028E-01 -2.589810174E-03
 6.499999762E-01 1.207074970E-01 -2.562611597E-03
 6.499999762E-01 1.209039018E-01 -2.532881219E-03
 6.499999762E-01 1.211087033E-01 -2.500606235E-03
 6.499999762E-01 1.213224977E-01 -2.465725411E-03
 6.499999762E-01 1.215455011E-01 -2.428257838E-03
 6.499999762E-01 1.217781976E-01 -2.388199326E-03
 6.499999762E-01 1.220211014E-01 -2.345561516E-03
 6.499999762E-01 1.222745031E-01 -2.300419612E-03
 6.499999762E-01 1.225389019E-01 -2.252836712E-03
 6.499999762E-01 1.228149012E-01 -2.202881500E-03
 6.499999762E-01 1.231029034E-01 -2.150684129E-03
 6.499999762E-01 1.234034970E-01 -2.096364973E-03
 6.499999762E-01 1.237171963E-01 -2.040083520E-03
 6.499999762E-01 1.240447015E-01 -1.981989713E-03
 6.499999762E-01 1.243864968E-01 -1.922296826E-03
 6.499999762E-01 1.247432977E-01 -1.861201948E-03
 6.499999762E-01 1.251157969E-01 -1.798930927E-03
 6.499999762E-01 1.255044937E-01 -1.735766884E-03
 6.499999762E-01 1.259101927E-01 -1.671966631E-03
 6.499999762E-01 1.263336986E-01 -1.607813174E-03
 6.499999762E-01 1.267755926E-01 -1.543642604E-03
 6.499999762E-01 1.272369027E-01 -1.479739905E-03
 6.499999762E-01 1.277181953E-01 -1.416464453E-03
 6.499999762E-01 1.282204986E-01 -1.354109147E-03
 6.499999762E-01 1.287447959E-01 -1.292955130E-03
 6.499999762E-01 1.292918026E-01 -1.233253861E-03
 6.499999762E-01 1.298626065E-01 -1.175106736E-03
 6.499999762E-01 1.304582059E-01 -1.118518878E-03
 6.499999762E-01 1.310797036E-01 -1.063508447E-03
 6.499999762E-01 1.317282021E-01 -1.010539825E-03
 6.499999762E-01 1.324048936E-01 -9.605123778E-04
 6.499999762E-01 1.331108958E-01 -9.139536996E-04
 6.499999762E-01 1.338475943E-01 -8.710496477E-04
 6.499999762E-01 1.346161962E-01 -8.318648324E-04
 6.499999762E-01 1.354182065E-01 -7.963717799E-04
 6.499999762E-01 1.362549067E-01 -7.644951693E-04
 6.499999762E-01 1.371279955E-01 -7.360919844E-04
 6.499999762E-01 1.380387992E-01 -7.109853905E-04
 6.499999762E-01 1.389891952E-01 -6.889380165E-04
 6.499999762E-01 1.399807930E-01 -6.696812343E-04
 6.499999762E-01 1.410153955E-01 -6.529052043E-04
 6.499999762E-01 1.420948058E-01 -6.382704596E-04
 6.499999762E-01 1.432210058E-01 -6.254078471E-04
 6.499999762E-01 1.443960965E-01 -6.139290635E-04
 6.499999762E-01 1.456221044E-01 -6.034349208E-04
 6.499999762E-01 1.469012052E-01 -5.935173249E-04
 6.499999762E-01 1.482359022E-01 -5.837691715E-04
 6.499999762E-01 1.496284008E-01 -5.737898755E-04
 6.499999762E-01 1.510812938E-01 -5.631904351E-04
 6.499999762E-01 1.525972933E-01 -5.516051897E-04
 6.499999762E-01 1.541790068E-01 -5.386889097E-04
 6.499999762E-01 1.558292955E-01 -5.241259350E-04
 6.499999762E-01 1.575511992E-01 -5.076357629E-04
 6.499999762E-01 1.593476981E-01 -4.889802658E-04
 6.499999762E-01 1.612222940E-01 -4.679658450E-04
 6.499999762E-01 1.631781012E-01 -4.444598162E-04
 6.499999762E-01 1.652188003E-01 -4.183878482E-04
 6.499999762E-01 1.673479974E-01 -3.897574206E-04
 6.499999762E-01 1.695697010E-01 -3.586411476E-04
 6.499999762E-01 1.718876958E-01 -3.252106253E-04
 6.499999762E-01 1.743061990E-01 -2.897392260E-04
 6.499999762E-01 1.768296957E-01 -2.526164462E-04
 6.499999762E-01 1.794627011E-01 -2.143687743E-04
 6.499999762E-01 1.822099984E-01 -1.756729180E-04
 6.499999762E-01 1.850764006E-01 -1.373727428E-04
 6.499999762E-01 1.880671978E-01 -1.004807855E-04
 6.499999762E-01 1.911877990E-01 -6.617437612E-05
 6.499999762E-01 1.944438070E-01 -3.574752191E-05
 6.499999762E-01 1.978410035E-01 -1.050845913E-05
 6.499999762E-01 2.013857067E-01 8.374698155E-06
 6.499999762E-01 2.050842047E-01 2.004918861E-05
 6.499999762E-01 2.089432031E-01 2.430572567E-05
 6.499999762E-01 2.129696012E-01 2.226459947E-05
 6.499999762E-01 2.171707004E-01 1.657310531E-05
 6.499999762E-01 2.215541005E-01 1.012813391E-05
 6.499999762E-01 2.261276990E-01 4.881507266E-06
 6.499999762E-01 2.308997959E-01 1.801341114E-06
 6.499999762E-01 2.358788997E-01 6.177117484E-07
 6.499999762E-01 2.410741001E-01 2.806390853E-07
 6.499999762E-01 2.464946955E-01 1.821126290E-07
 6.499999762E-01 2.521505058E-01 1.489239452E-07
 6.499999762E-01 2.580518126E-01 1.364136324E-07
 6.499999762E-01 2.642090023E-01 1.311600641E-07
 6.499999762E-01 2.706334889E-01 1.284868318E-07
 6.499999762E-01 2.773366868E-01 1.266468246E-07
 6.499999762E-01 2.843307853E-01 1.249858457E-07
 6.499999762E-01 2.916283906E-01 1.232701692E-07
 6.499999762E-01 2.992425859E-01 1.214228575E-07
 6.499999762E-01 3.071871996E-01 1.194218271E-07
 6.499999762E-01 3.154765964E-01 1.172630704E-07
 6.499999762E-01 3.241255879E-01 1.149483282E-07
 6.499999762E-01 3.331499100E-01 1.124814233E-07
 6.499999762E-01 3.425656855E-01 1.098673650E-07
 6.499999762E-01 3.523901999E-01 1.071118803E-07
 6.499999762E-01 3.626408875E-01 1.042216553E-07
 6.499999762E-01 3.733364046E-01 1.012039874E-07
 6.499999762E-01 3.844959140E-01 9.806691281E-08
 6.499999762E-01 3.961397111E-01 9.481895802E-08
 6.499999762E-01 4.082886875E-01 9.146933166E-08
 6.499999762E-01 4.209648073E-01 8.802772555E-08
 6.499999762E-01 4.341908991E-01 8.450449229E-08
 6.499999762E-01 4.479908943E-01 8.091051029E-08
 6.499999762E-01 4.623895884E-01 7.725722639E-08
 6.499999762E-01 4.774130881E-01 7.355649245E-08
 6.499999762E-01 4.930885136E-01 6.982070744E-08
 6.499999762E-01 5.094438791E-01 6.606281744E-08
 6.499999762E-01 5.265089869E-01 6.229691962E-08
 6.499999762E-01 5.443145037E-01 5.853646812E-08
 6.499999762E-01 5.628924966E-01 5.479658327E-08
 6.499999762E-01 5.822765231E-01 5.109226464E-08
 6.499999762E-01 6.025015712E-01 4.743751347E-08
 6.499999762E-01 6.236041188E-01 4.384315844E-08
 6.499999762E-01 6.456223130E-01 4.034723489E-08
 6.499999762E-01 6.685956120E-01 3.702211870E-08
 6.499999762E-01 6.925656796E-01 3.404129600E-08
 6.499999762E-01 7.175757289E-01 3.137356330E-08
 6.499999762E-01 7.436707020E-01 2.839160906E-08
 6.499999762E-01 7.708979249E-01 2.352552464E-08
 6.499999762E-01 7.993062735E-01 1.991882570E-08
 6.499999762E-01 8.289471269E-01 3.523938119E-08
 6.499999762E-01 8.598734736E-01 4.609763238E-08
 6.499999762E-01 8.921396732E-01 0.000000000E+00
ZONE T="x/c=0.8"
 8.000000119E-01 2.460199967E-02 0.000000000E+00
 8.000000119E-01 2.461059950E-02 3.296515838E-11
 8.000000119E-01 2.461968921E-02 3.059677511E-10
 8.000000119E-01 2.462900989E-02 1.371500580E-09
 8.000000119E-01 2.463857085E-02 4.362491257E-09
 8.000000119E-01 2.464839071E-02 1.129098681E-08
 8.000000119E-01 2.465848066E-02 2.455219317E-08
 8.000000119E-01 2.466885932E-02 4.755714400E-08
 8.000000119E-01 2.467953973E-02 8.485405800E-08
 8.000000119E-01 2.469055913E-02 1.433907926E-07
 8.000000119E-01 2.470193058E-02 2.346699404E-07
 8.000000119E-01 2.471365966E-02 3.669265141E-07
 8.000000119E-01 2.472578920E-02 5.534234333E-07
 8.000000119E-01 2.473831922E-02 8.142756087E-07
 8.000000119E-01 2.475129999E-02 1.181196694E-06
 8.000000119E-01 2.476472966E-02 1.672687404E-06
 8.000000119E-01 2.477863990E-02 2.321348575E-06
 8.000000119E-01 2.479306050E-02 3.186795084E-06
 8.000000119E-01 2.480801009E-02 4.325689588E-06
 8.000000119E-01 2.482352033E-02 5.780675565E-06
 8.000000119E-01 2.483961917E-02 7.617475148E-06
 8.000000119E-01 2.485634014E-02 9.981205039E-06
 8.000000119E-01 2.487370931E-02 1.293400965E-05
 8.000000119E-01 2.489176020E-02 1.656394488E-05
 8.000000119E-01 2.491050959E-02 2.095527816E-05
 8.000000119E-01 2.493002079E-02 2.631740062E-05
 8.000000119E-01 2.495029941E-02 3.270459638E-05
 8.000000119E-01 2.497139946E-02 4.016493767E-05
 8.000000119E-01 2.499335073E-02 4.874121805E-05
 8.000000119E-01 2.501620911E-02 5.845830674E-05
 8.000000119E-01 2.503998950E-02 6.934658450E-05
 8.000000119E-01 2.506476082E-02 8.123959560E-05
 8.000000119E-01 2.509054914E-02 9.396277164E-05
 8.000000119E-01 2.511741035E-02 1.073197272E-04
 8.000000119E-01 2.514538914E-02 1.210582268E-04
 8.000000119E-01 2.517453954E-02 1.348791557E-04
 8.000000119E-01 2.520490997E-02 1.484885579E-04
 8.000000119E-01 2.523656003E-02 1.616531517E-04
 8.000000119E-01 2.526954003E-02 1.741426386E-04
 8.000000119E-01 2.530392073E-02 1.857607422E-04
 8.000000119E-01 2.533975057E-02 1.963554241E-04
 8.000000119E-01 2.537710033E-02 2.058193058E-04
 8.000000119E-01 2.541604079E-02 2.140111610E-04
 8.000000119E-01 2.545664087E-02 2.208902879E-04
 8.000000119E-01 2.549898066E-02 2.265339426E-04
 8.000000119E-01 2.554311045E-02 2.309485426E-04
 8.000000119E-01 2.558914013E-02 2.341649088E-04
 8.000000119E-01 2.563714050E-02 2.362194209E-04
 8.000000119E-01 2.568719909E-02 2.371545561E-04
 8.000000119E-01 2.573939972E-02 2.370152506E-04
 8.000000119E-01 2.579385042E-02 2.358400961E-04
 8.000000119E-01 2.585064061E-02 2.336684120E-04
 8.000000119E-01 2.590987086E-02 2.305283851E-04
 8.000000119E-01 2.597164921E-02 2.264225332E-04
 8.000000119E-01 2.603610046E-02 2.214236592E-04
 8.000000119E-01 2.610331960E-02 2.155602706E-04
 8.000000119E-01 2.617345005E-02 2.088500187E-04
 8.000000119E-01 2.624659985E-02 2.013017802E-04
 8.000000119E-01 2.632291056E-02 1.928982092E-04
 8.000000119E-01 2.640252002E-02 1.836239971E-04
 8.000000119E-01 2.648556978E-02 1.734825491E-04
 8.000000119E-01 2.657221071E-02 1.624774013E-04
 8.000000119E-01 2.666259930E-02 1.506142289E-04
 8.000000119E-01 2.675689943E-02 1.378953893E-04
 8.000000119E-01 2.685528994E-02 1.243200386E-04
 8.000000119E-01 2.695792913E-02 1.098876892E-04
 8.000000119E-01 2.706502005E-02 9.458173008E-05
 8.000000119E-01 2.717675082E-02 7.839073078E-05
 8.000000119E-01 2.729333006E-02 6.129671965E-05
 8.000000119E-01 2.741494961E-02 4.327552233E-05
 8.000000119E-01 2.754184976E-02 2.430085078E-05
 8.000000119E-01 2.767425030E-02 4.336989605E-06
 8.000000119E-01 2.781240083E-02 -1.665772106E-05
 8.000000119E-01 2.795653977E-02 -3.871840090E-05