# CFL3D results for NASA wall-mounted hump, 817 x 217 grid, no plenum, SST model
VARIABLES = "x/c","y/c","u'v'/(Uref^2)"
ZONE T="x/c=-2.14"
 -2.140000105E+00 7.713619561E-05 -6.789164672E-06
 -2.140000105E+00 1.361542847E-03 -1.286823419E-03
 -2.140000105E+00 2.645949367E-03 -1.324931625E-03
 -2.140000105E+00 3.930355888E-03 -1.328881714E-03
 -2.140000105E+00 5.214762874E-03 -1.324227313E-03
 -2.140000105E+00 6.499169394E-03 -1.315724454E-03
 -2.140000105E+00 7.783575915E-03 -1.304967212E-03
 -2.140000105E+00 9.067982435E-03 -1.292636618E-03
 -2.140000105E+00 1.035238896E-02 -1.279028831E-03
 -2.140000105E+00 1.163679548E-02 -1.264347695E-03
 -2.140000105E+00 1.292120293E-02 -1.248673652E-03
 -2.140000105E+00 1.420560945E-02 -1.232087496E-03
 -2.140000105E+00 1.549001597E-02 -1.214613672E-03
 -2.140000105E+00 1.677442156E-02 -1.196261845E-03
 -2.140000105E+00 1.805882901E-02 -1.177049358E-03
 -2.140000105E+00 1.934323646E-02 -1.156959799E-03
 -2.140000105E+00 2.062764205E-02 -1.136549050E-03
 -2.140000105E+00 2.191204950E-02 -1.114351442E-03
 -2.140000105E+00 2.319645509E-02 -1.090919599E-03
 -2.140000105E+00 2.448086254E-02 -1.066488912E-03
 -2.140000105E+00 2.576526813E-02 -1.041049720E-03
 -2.140000105E+00 2.704967558E-02 -1.014515758E-03
 -2.140000105E+00 2.833408304E-02 -9.868051857E-04
 -2.140000105E+00 2.961848862E-02 -9.578305180E-04
 -2.140000105E+00 3.090289608E-02 -9.274903568E-04
 -2.140000105E+00 3.218730167E-02 -8.956710226E-04
 -2.140000105E+00 3.347170725E-02 -8.622566238E-04
 -2.140000105E+00 3.475611657E-02 -8.271508268E-04
 -2.140000105E+00 3.604052216E-02 -7.903034566E-04
 -2.140000105E+00 3.732492775E-02 -7.517344202E-04
 -2.140000105E+00 3.860933334E-02 -7.115358603E-04
 -2.140000105E+00 3.989374265E-02 -6.696035853E-04
 -2.140000105E+00 4.117814824E-02 -6.262806128E-04
 -2.140000105E+00 4.246255383E-02 -5.824697437E-04
 -2.140000105E+00 4.374696314E-02 -5.385586410E-04
 -2.140000105E+00 4.503136873E-02 -4.960823571E-04
 -2.140000105E+00 4.631577432E-02 -4.558282963E-04
 -2.140000105E+00 4.760017991E-02 -4.168960440E-04
 -2.140000105E+00 4.888458923E-02 -3.779381514E-04
 -2.140000105E+00 5.016899481E-02 -3.371849016E-04
 -2.140000105E+00 5.145340040E-02 -2.945231390E-04
 -2.140000105E+00 5.273780972E-02 -2.537102264E-04
 -2.140000105E+00 5.402221531E-02 -2.133508387E-04
 -2.140000105E+00 5.530662090E-02 -1.733151876E-04
 -2.140000105E+00 5.659102648E-02 -1.339049486E-04
 -2.140000105E+00 5.787543580E-02 -9.645300452E-05
 -2.140000105E+00 5.915984139E-02 -6.295531057E-05
 -2.140000105E+00 6.044424698E-02 -3.711163663E-05
 -2.140000105E+00 6.172865629E-02 -1.731534212E-05
 -2.140000105E+00 6.301306188E-02 -8.424068255E-06
 -2.140000105E+00 6.429746747E-02 -1.809110699E-06
 -2.140000105E+00 6.558187306E-02 -8.568244994E-07
 -2.140000105E+00 6.686627865E-02 -2.389823273E-08
 -2.140000105E+00 6.815068424E-02 -1.253346760E-08
 -2.140000105E+00 6.943509728E-02 -1.165439856E-09
 -2.140000105E+00 7.071950287E-02 1.666293215E-10
 -2.140000105E+00 7.200390846E-02 4.496658948E-11
 -2.140000105E+00 7.328831404E-02 -1.250399610E-11
 -2.140000105E+00 7.457271963E-02 -1.121360556E-11
 -2.140000105E+00 7.585712522E-02 -1.000888955E-11
 -2.140000105E+00 7.714153081E-02 -9.962845653E-12
 -2.140000105E+00 7.842594385E-02 -9.916804357E-12
 -2.140000105E+00 7.971034944E-02 -9.824983709E-12
 -2.140000105E+00 8.099475503E-02 -9.689014348E-12
 -2.140000105E+00 8.227916062E-02 -9.553040650E-12
 -2.140000105E+00 8.356356621E-02 -9.501375381E-12
 -2.140000105E+00 8.484797180E-02 -9.465987022E-12
 -2.140000105E+00 8.613237739E-02 -9.428839653E-12
 -2.140000105E+00 8.741679043E-02 -9.359200047E-12
 -2.140000105E+00 8.870119601E-02 -9.289560440E-12
 -2.140000105E+00 8.998560160E-02 -9.221544535E-12
 -2.140000105E+00 9.127000719E-02 -9.163203182E-12
 -2.140000105E+00 9.255441278E-02 -9.104861830E-12
 -2.140000105E+00 9.383881837E-02 -9.046318382E-12
 -2.140000105E+00 9.512322396E-02 -8.986139957E-12
 -2.140000105E+00 9.640763700E-02 -8.925961532E-12
 -2.140000105E+00 9.769204259E-02 -8.865783975E-12
 -2.140000105E+00 9.897644818E-02 -8.807472980E-12
 -2.140000105E+00 1.002608538E-01 -8.749272140E-12
 -2.140000105E+00 1.015452594E-01 -8.691071300E-12
 -2.140000105E+00 1.028296649E-01 -8.633536594E-12
 -2.140000105E+00 1.041140705E-01 -8.576374853E-12
 -2.140000105E+00 1.053984836E-01 -8.519212245E-12
 -2.140000105E+00 1.066828892E-01 -8.462299438E-12
 -2.140000105E+00 1.079672948E-01 -8.406413586E-12
 -2.140000105E+00 1.092517003E-01 -8.350528602E-12
 -2.140000105E+00 1.105361059E-01 -8.294642750E-12
 -2.140000105E+00 1.118205115E-01 -8.239524514E-12
 -2.140000105E+00 1.131049171E-01 -8.184919756E-12
 -2.140000105E+00 1.143893301E-01 -8.130314130E-12
 -2.140000105E+00 1.156737357E-01 -8.075709372E-12
 -2.140000105E+00 1.169581413E-01 -8.022206163E-12
 -2.140000105E+00 1.182425469E-01 -7.968901580E-12
 -2.140000105E+00 1.195269525E-01 -7.915596997E-12
 -2.140000105E+00 1.208113581E-01 -7.862292414E-12
 -2.140000105E+00 1.220957637E-01 -7.810233363E-12
 -2.140000105E+00 1.233801767E-01 -7.758262782E-12
 -2.140000105E+00 1.246645823E-01 -7.706293069E-12
 -2.140000105E+00 1.259489805E-01 -7.654324223E-12
 -2.140000105E+00 1.272333860E-01 -7.603505499E-12
 -2.140000105E+00 1.285178065E-01 -7.552892339E-12
 -2.140000105E+00 1.298022121E-01 -7.502280047E-12
 -2.140000105E+00 1.310866177E-01 -7.451666888E-12
 -2.140000105E+00 1.323710233E-01 -7.401866446E-12
 -2.140000105E+00 1.336554289E-01 -7.352636729E-12
 -2.140000105E+00 1.349398345E-01 -7.303407878E-12
 -2.140000105E+00 1.362242401E-01 -7.254178595E-12
 -2.140000105E+00 1.375086457E-01 -7.205147069E-12
 -2.140000105E+00 1.387930512E-01 -7.157323779E-12
 -2.140000105E+00 1.400774568E-01 -7.109500922E-12
 -2.140000105E+00 1.413618624E-01 -7.061678499E-12
 -2.140000105E+00 1.426462680E-01 -7.013855642E-12
 -2.140000105E+00 1.439306736E-01 -6.966748359E-12
 -2.140000105E+00 1.452150792E-01 -6.920354047E-12
 -2.140000105E+00 1.464994997E-01 -6.873960602E-12
 -2.140000105E+00 1.477839053E-01 -6.827566290E-12
 -2.140000105E+00 1.490683109E-01 -6.781172412E-12
 -2.140000105E+00 1.503527164E-01 -6.735735233E-12
 -2.140000105E+00 1.516371220E-01 -6.690790283E-12
 -2.140000105E+00 1.529215276E-01 -6.645846633E-12
 -2.140000105E+00 1.542059332E-01 -6.600901683E-12
 -2.140000105E+00 1.554903388E-01 -6.555957166E-12
 -2.140000105E+00 1.567747444E-01 -6.511906899E-12
 -2.140000105E+00 1.580591500E-01 -6.468430392E-12
 -2.140000105E+00 1.593435556E-01 -6.424953885E-12
 -2.140000105E+00 1.606279612E-01 -6.381478679E-12
 -2.140000105E+00 1.619123667E-01 -6.338002172E-12
 -2.140000105E+00 1.631967723E-01 -6.295029168E-12
 -2.140000105E+00 1.644811779E-01 -6.253037584E-12
 -2.140000105E+00 1.657655984E-01 -6.211045567E-12
 -2.140000105E+00 1.670500040E-01 -6.169055284E-12
 -2.140000105E+00 1.683344096E-01 -6.127063700E-12
 -2.140000105E+00 1.696188152E-01 -6.085072116E-12
 -2.140000105E+00 1.709032208E-01 -6.044341243E-12
 -2.140000105E+00 1.721876264E-01 -6.003849761E-12
 -2.140000105E+00 1.734720320E-01 -5.963358279E-12
 -2.140000105E+00 1.747564375E-01 -5.922867665E-12
 -2.140000105E+00 1.760408431E-01 -5.882376183E-12
 -2.140000105E+00 1.773252487E-01 -5.842040393E-12
 -2.140000105E+00 1.786096543E-01 -5.803060723E-12
 -2.140000105E+00 1.798940599E-01 -5.764081486E-12
 -2.140000105E+00 1.811784655E-01 -5.725103117E-12
 -2.140000105E+00 1.824628711E-01 -5.686123447E-12
 -2.140000105E+00 1.837472916E-01 -5.647143343E-12
 -2.140000105E+00 1.850316972E-01 -5.608341482E-12
 -2.140000105E+00 1.863161027E-01 -5.570884032E-12
 -2.140000105E+00 1.876005083E-01 -5.533426582E-12
 -2.140000105E+00 1.888849139E-01 -5.495969131E-12
 -2.140000105E+00 1.901693195E-01 -5.458513416E-12
 -2.140000105E+00 1.914537251E-01 -5.421055965E-12
 -2.140000105E+00 1.927381307E-01 -5.383598515E-12
 -2.140000105E+00 1.940225363E-01 -5.347472465E-12
 -2.140000105E+00 1.953069419E-01 -5.311544173E-12
 -2.140000105E+00 1.965913475E-01 -5.275616315E-12
 -2.140000105E+00 1.978757530E-01 -5.239689325E-12
 -2.140000105E+00 1.991601586E-01 -5.203761033E-12
 -2.140000105E+00 2.004445642E-01 -5.167833175E-12
 -2.140000105E+00 2.017289847E-01 -5.132446985E-12
 -2.140000105E+00 2.030133903E-01 -5.098052189E-12
 -2.140000105E+00 2.042977959E-01 -5.063657826E-12
 -2.140000105E+00 2.055822015E-01 -5.029263464E-12
 -2.140000105E+00 2.068666071E-01 -4.994870403E-12
 -2.140000105E+00 2.081510127E-01 -4.960475607E-12
 -2.140000105E+00 2.094354182E-01 -4.926081244E-12
 -2.140000105E+00 2.107198238E-01 -4.892536896E-12
 -2.140000105E+00 2.120042294E-01 -4.859677331E-12
 -2.140000105E+00 2.132886350E-01 -4.826817765E-12
 -2.140000105E+00 2.145730406E-01 -4.793959934E-12
 -2.140000105E+00 2.158574462E-01 -4.761100368E-12
 -2.140000105E+00 2.171418518E-01 -4.728240802E-12
 -2.140000105E+00 2.184262574E-01 -4.695381670E-12
 -2.140000105E+00 2.197106779E-01 -4.663225101E-12
 -2.140000105E+00 2.209950835E-01 -4.631899031E-12
 -2.140000105E+00 2.222794890E-01 -4.600572961E-12
 -2.140000105E+00 2.235638946E-01 -4.569246457E-12
 -2.140000105E+00 2.248483002E-01 -4.537922121E-12
 -2.140000105E+00 2.261327058E-01 -4.506596051E-12
 -2.140000105E+00 2.274171114E-01 -4.475269547E-12
 -2.140000105E+00 2.287015170E-01 -4.444028912E-12
 -2.140000105E+00 2.299859226E-01 -4.414231133E-12
 -2.140000105E+00 2.312703282E-01 -4.384432921E-12
 -2.140000105E+00 2.325547338E-01 -4.354635142E-12
 -2.140000105E+00 2.338391393E-01 -4.324838664E-12
 -2.140000105E+00 2.351235449E-01 -4.295040885E-12
 -2.140000105E+00 2.364079505E-01 -4.265242673E-12
 -2.140000105E+00 2.376923561E-01 -4.235444894E-12
 -2.140000105E+00 2.389767766E-01 -4.206151052E-12
 -2.140000105E+00 2.402611822E-01 -4.177872458E-12
 -2.140000105E+00 2.415455878E-01 -4.149594297E-12
 -2.140000105E+00 2.428299934E-01 -4.121316136E-12
 -2.140000105E+00 2.441143990E-01 -4.093039276E-12
 -2.140000105E+00 2.453988045E-01 -4.064761115E-12
 -2.140000105E+00 2.466832101E-01 -4.036482953E-12
 -2.140000105E+00 2.479676157E-01 -4.008204792E-12
 -2.140000105E+00 2.492520213E-01 -3.980337327E-12
 -2.140000105E+00 2.505364418E-01 -3.953566207E-12
 -2.140000105E+00 2.518208325E-01 -3.926795954E-12
 -2.140000105E+00 2.531052530E-01 -3.900024834E-12
 -2.140000105E+00 2.543896437E-01 -3.873255883E-12
 -2.140000105E+00 2.556740642E-01 -3.846485196E-12
 -2.140000105E+00 2.569584548E-01 -3.819714944E-12
 -2.140000105E+00 2.582428753E-01 -3.792943824E-12
 -2.140000105E+00 2.595272660E-01 -3.766173571E-12
 -2.140000105E+00 2.608116865E-01 -3.740690917E-12
 -2.140000105E+00 2.620960772E-01 -3.715412526E-12
 -2.140000105E+00 2.633804977E-01 -3.690133702E-12
 -2.140000105E+00 2.646648884E-01 -3.664855312E-12
 -2.140000105E+00 2.659493089E-01 -3.639577788E-12
 -2.140000105E+00 2.672337294E-01 -3.614298747E-12
 -2.140000105E+00 2.685181201E-01 -3.589020357E-12
 -2.140000105E+00 2.698025405E-01 -3.563741533E-12
 -2.140000105E+00 2.710869312E-01 -3.538595198E-12
 -2.140000105E+00 2.723713517E-01 -3.514788937E-12
 -2.140000105E+00 2.736557424E-01 -3.490983110E-12
 -2.140000105E+00 2.749401629E-01 -3.467176633E-12
 -2.140000105E+00 2.762245536E-01 -3.443371022E-12
 -2.140000105E+00 2.775089741E-01 -3.419565846E-12
 -2.140000105E+00 2.787933648E-01 -3.395760236E-12
 -2.140000105E+00 2.800777853E-01 -3.371953758E-12
 -2.140000105E+00 2.813621759E-01 -3.348148148E-12
 -2.140000105E+00 2.826465964E-01 -3.324341670E-12
 -2.140000105E+00 2.839310169E-01 -3.301890662E-12
 -2.140000105E+00 2.852154076E-01 -3.279534413E-12
 -2.140000105E+00 2.864998281E-01 -3.257177297E-12
 -2.140000105E+00 2.877842188E-01 -3.234821048E-12
 -2.140000105E+00 2.890686393E-01 -3.212465233E-12
 -2.140000105E+00 2.903530300E-01 -3.190108984E-12
 -2.140000105E+00 2.916374505E-01 -3.167752085E-12
 -2.140000105E+00 2.929218411E-01 -3.145395619E-12
 -2.140000105E+00 2.942062616E-01 -3.123038720E-12
 -2.140000105E+00 2.954906523E-01 -3.101227608E-12
 -2.140000105E+00 2.967750728E-01 -3.080293182E-12
 -2.140000105E+00 2.980594635E-01 -3.059359190E-12
 -2.140000105E+00 2.993438840E-01 -3.038424764E-12
 -2.140000105E+00 3.006282747E-01 -3.017490988E-12
 -2.140000105E+00 3.019126952E-01 -2.996557863E-12
 -2.140000105E+00 3.031971157E-01 -2.975623437E-12
 -2.140000105E+00 3.044815063E-01 -2.954689445E-12
 -2.140000105E+00 3.057659268E-01 -2.933755018E-12
 -2.140000105E+00 3.070503175E-01 -2.912821243E-12
 -2.140000105E+00 3.083347380E-01 -2.892467299E-12
 -2.140000105E+00 3.096191287E-01 -2.872925422E-12
 -2.140000105E+00 3.109035492E-01 -2.853382895E-12
 -2.140000105E+00 3.121879399E-01 -2.833841018E-12
 -2.140000105E+00 3.134723604E-01 -2.814298490E-12
 -2.140000105E+00 3.147567511E-01 -2.794757698E-12
 -2.140000105E+00 3.160411716E-01 -2.775215171E-12
 -2.140000105E+00 3.173255622E-01 -2.755673077E-12
 -2.140000105E+00 3.186099827E-01 -2.736130766E-12
 -2.140000105E+00 3.198943734E-01 -2.716588673E-12
 -2.140000105E+00 3.211787939E-01 -2.697071082E-12
 -2.140000105E+00 3.224632144E-01 -2.678886193E-12
 -2.140000105E+00 3.237476051E-01 -2.660701737E-12
 -2.140000105E+00 3.250320256E-01 -2.642516848E-12
 -2.140000105E+00 3.263164163E-01 -2.624332392E-12
 -2.140000105E+00 3.276008368E-01 -2.606147503E-12
 -2.140000105E+00 3.288852274E-01 -2.587963914E-12
 -2.140000105E+00 3.301696479E-01 -2.569779025E-12
 -2.140000105E+00 3.314540386E-01 -2.551594352E-12
 -2.140000105E+00 3.327384591E-01 -2.533409463E-12
 -2.140000105E+00 3.340228498E-01 -2.515225007E-12
 -2.140000105E+00 3.353072703E-01 -2.497262163E-12
 -2.140000105E+00 3.365916610E-01 -2.480397398E-12
 -2.140000105E+00 3.378760815E-01 -2.463531983E-12
 -2.140000105E+00 3.391605020E-01 -2.446666784E-12
 -2.140000105E+00 3.404448926E-01 -2.429801802E-12
 -2.140000105E+00 3.417293131E-01 -2.412936604E-12
 -2.140000105E+00 3.430137038E-01 -2.396072490E-12
 -2.140000105E+00 3.442981243E-01 -2.379207074E-12
 -2.140000105E+00 3.455825150E-01 -2.362342310E-12
 -2.140000105E+00 3.468669355E-01 -2.345476894E-12
 -2.140000105E+00 3.481513262E-01 -2.328611913E-12
 -2.140000105E+00 3.494357467E-01 -2.311746714E-12
 -2.140000105E+00 3.507201374E-01 -2.295965067E-12
 -2.140000105E+00 3.520045578E-01 -2.280377926E-12
 -2.140000105E+00 3.532889485E-01 -2.264791002E-12
 -2.140000105E+00 3.545733690E-01 -2.249203861E-12
 -2.140000105E+00 3.558577597E-01 -2.233617154E-12
 -2.140000105E+00 3.571421802E-01 -2.218029796E-12
 -2.140000105E+00 3.584266007E-01 -2.202443306E-12
 -2.140000105E+00 3.597109914E-01 -2.186856382E-12
 -2.140000105E+00 3.609954119E-01 -2.171269241E-12
 -2.140000105E+00 3.622798026E-01 -2.155682534E-12
 -2.140000105E+00 3.635642231E-01 -2.140095176E-12
 -2.140000105E+00 3.648486137E-01 -2.124552270E-12
 -2.140000105E+00 3.661330342E-01 -2.110198518E-12
 -2.140000105E+00 3.674174249E-01 -2.095844982E-12
 -2.140000105E+00 3.687018454E-01 -2.081491229E-12
 -2.140000105E+00 3.699862361E-01 -2.067137694E-12
 -2.140000105E+00 3.712706566E-01 -2.052783941E-12
 -2.140000105E+00 3.725550473E-01 -2.038430405E-12
 -2.140000105E+00 3.738394678E-01 -2.024076870E-12
 -2.140000105E+00 3.751238585E-01 -2.009723334E-12
 -2.140000105E+00 3.764082789E-01 -1.995369581E-12
 -2.140000105E+00 3.776926994E-01 -1.981015829E-12
 -2.140000105E+00 3.789770901E-01 -1.966662293E-12
 -2.140000105E+00 3.802615106E-01 -1.952308541E-12
 -2.140000105E+00 3.815459013E-01 -1.938797647E-12
 -2.140000105E+00 3.828303218E-01 -1.925628927E-12
 -2.140000105E+00 3.841147125E-01 -1.912460641E-12
ZONE T="x/c=0.65"
 6.499999762E-01 1.161499992E-01 -1.398322777E-11
 6.499999762E-01 1.161757037E-01 -2.992071657E-08
 6.499999762E-01 1.161819994E-01 -7.943209113E-08
 6.499999762E-01 1.161884964E-01 -1.874571893E-07
 6.499999762E-01 1.161950976E-01 -4.200016974E-07
 6.499999762E-01 1.162016988E-01 -8.569220995E-07
 6.499999762E-01 1.162085012E-01 -1.648814191E-06
 6.499999762E-01 1.162153035E-01 -2.963417501E-06
 6.499999762E-01 1.162222996E-01 -5.090811555E-06
 6.499999762E-01 1.162293032E-01 -8.312692444E-06
 6.499999762E-01 1.162365004E-01 -1.313272060E-05
 6.499999762E-01 1.162438020E-01 -2.002880501E-05
 6.499999762E-01 1.162512973E-01 -2.968841000E-05
 6.499999762E-01 1.162588969E-01 -4.266123142E-05
 6.499999762E-01 1.162666976E-01 -5.965147648E-05
 6.499999762E-01 1.162746996E-01 -8.131325012E-05
 6.499999762E-01 1.162827983E-01 -1.083290554E-04
 6.499999762E-01 1.162912026E-01 -1.414499857E-04
 6.499999762E-01 1.162997037E-01 -1.799736638E-04
 6.499999762E-01 1.163085029E-01 -2.241884795E-04
 6.499999762E-01 1.163175032E-01 -2.730434062E-04
 6.499999762E-01 1.163268983E-01 -3.269402368E-04
 6.499999762E-01 1.163363978E-01 -3.834173258E-04
 6.499999762E-01 1.163462996E-01 -4.432403075E-04
 6.499999762E-01 1.163564995E-01 -5.049235187E-04
 6.499999762E-01 1.163669974E-01 -5.676977453E-04
 6.499999762E-01 1.163778976E-01 -6.313699996E-04
 6.499999762E-01 1.163891032E-01 -6.947190850E-04
 6.499999762E-01 1.164008006E-01 -7.583355764E-04
 6.499999762E-01 1.164128035E-01 -8.208825602E-04
 6.499999762E-01 1.164252982E-01 -8.829538710E-04
 6.499999762E-01 1.164382026E-01 -9.439165005E-04
 6.499999762E-01 1.164515987E-01 -1.003946061E-03
 6.499999762E-01 1.164655015E-01 -1.062884228E-03
 6.499999762E-01 1.164799035E-01 -1.120600500E-03
 6.499999762E-01 1.164949015E-01 -1.177377533E-03
 6.499999762E-01 1.165105030E-01 -1.233051880E-03
 6.499999762E-01 1.165267006E-01 -1.287496416E-03
 6.499999762E-01 1.165435016E-01 -1.340722549E-03
 6.499999762E-01 1.165610030E-01 -1.392904203E-03
 6.499999762E-01 1.165791005E-01 -1.443579677E-03
 6.499999762E-01 1.165980995E-01 -1.493674936E-03
 6.499999762E-01 1.166177019E-01 -1.541334903E-03
 6.499999762E-01 1.166381985E-01 -1.587554463E-03
 6.499999762E-01 1.166594997E-01 -1.632618834E-03
 6.499999762E-01 1.166817024E-01 -1.676753978E-03
 6.499999762E-01 1.167049035E-01 -1.720128814E-03
 6.499999762E-01 1.167289019E-01 -1.762311440E-03
 6.499999762E-01 1.167540029E-01 -1.803744701E-03
 6.499999762E-01 1.167801023E-01 -1.844153274E-03
 6.499999762E-01 1.168072969E-01 -1.883629011E-03
 6.499999762E-01 1.168356985E-01 -1.922244672E-03
 6.499999762E-01 1.168652996E-01 -1.959900605E-03
 6.499999762E-01 1.168961003E-01 -1.996536972E-03
 6.499999762E-01 1.169281974E-01 -2.032205462E-03
 6.499999762E-01 1.169617027E-01 -2.066961024E-03
 6.499999762E-01 1.169964969E-01 -2.100626240E-03
 6.499999762E-01 1.170329005E-01 -2.133449074E-03
 6.499999762E-01 1.170708016E-01 -2.165267244E-03
 6.499999762E-01 1.171104014E-01 -2.196185058E-03
 6.499999762E-01 1.171516031E-01 -2.226057230E-03
 6.499999762E-01 1.171946004E-01 -2.254951978E-03
 6.499999762E-01 1.172394976E-01 -2.282856964E-03
 6.499999762E-01 1.172861978E-01 -2.309638774E-03
 6.499999762E-01 1.173349991E-01 -2.335391939E-03
 6.499999762E-01 1.173857972E-01 -2.359936712E-03
 6.499999762E-01 1.174388975E-01 -2.383368788E-03
 6.499999762E-01 1.174942032E-01 -2.405567793E-03
 6.499999762E-01 1.175519004E-01 -2.426534193E-03
 6.499999762E-01 1.176121011E-01 -2.446217695E-03
 6.499999762E-01 1.176747978E-01 -2.464535646E-03
 6.499999762E-01 1.177403033E-01 -2.481501549E-03
 6.499999762E-01 1.178086028E-01 -2.497022739E-03
 6.499999762E-01 1.178798974E-01 -2.511051483E-03
 6.499999762E-01 1.179542020E-01 -2.523534233E-03
 6.499999762E-01 1.180317029E-01 -2.534436993E-03
 6.499999762E-01 1.181124970E-01 -2.543708775E-03
 6.499999762E-01 1.181968972E-01 -2.551326761E-03
 6.499999762E-01 1.182847992E-01 -2.557224361E-03
 6.499999762E-01 1.183765978E-01 -2.561382484E-03
 6.499999762E-01 1.184723973E-01 -2.563757356E-03
 6.499999762E-01 1.185721979E-01 -2.564314753E-03
 6.499999762E-01 1.186764017E-01 -2.563028131E-03
 6.499999762E-01 1.187850013E-01 -2.559869550E-03
 6.499999762E-01 1.188983992E-01 -2.554805716E-03
 6.499999762E-01 1.190166026E-01 -2.547817072E-03
 6.499999762E-01 1.191399992E-01 -2.538866363E-03
 6.499999762E-01 1.192686036E-01 -2.527941484E-03
 6.499999762E-01 1.194028035E-01 -2.515000990E-03
 6.499999762E-01 1.195427999E-01 -2.500019735E-03
 6.499999762E-01 1.196888983E-01 -2.482960932E-03
 6.499999762E-01 1.198412031E-01 -2.463813638E-03
 6.499999762E-01 1.200001016E-01 -2.442536876E-03
 6.499999762E-01 1.201658994E-01 -2.419103868E-03
 6.499999762E-01 1.203389019E-01 -2.393493894E-03
 6.499999762E-01 1.205193028E-01 -2.365715802E-03
 6.499999762E-01 1.207074970E-01 -2.335764701E-03
 6.499999762E-01 1.209039018E-01 -2.303650370E-03
 6.499999762E-01 1.211087033E-01 -2.269447781E-03
 6.499999762E-01 1.213224977E-01 -2.233196283E-03
 6.499999762E-01 1.215455011E-01 -2.195038833E-03
 6.499999762E-01 1.217781976E-01 -2.155121416E-03
 6.499999762E-01 1.220211014E-01 -2.113639610E-03
 6.499999762E-01 1.222745031E-01 -2.070887480E-03
 6.499999762E-01 1.225389019E-01 -2.027187264E-03
 6.499999762E-01 1.228149012E-01 -1.982909627E-03
 6.499999762E-01 1.231029034E-01 -1.938513713E-03
 6.499999762E-01 1.234034970E-01 -1.894473797E-03
 6.499999762E-01 1.237171963E-01 -1.851300360E-03
 6.499999762E-01 1.240447015E-01 -1.809477224E-03
 6.499999762E-01 1.243864968E-01 -1.769487397E-03
 6.499999762E-01 1.247432977E-01 -1.731725875E-03
 6.499999762E-01 1.251157969E-01 -1.696509309E-03
 6.499999762E-01 1.255044937E-01 -1.664071344E-03
 6.499999762E-01 1.259101927E-01 -1.634509652E-03
 6.499999762E-01 1.263336986E-01 -1.607822138E-03
 6.499999762E-01 1.267755926E-01 -1.583929872E-03
 6.499999762E-01 1.272369027E-01 -1.562655438E-03
 6.499999762E-01 1.277181953E-01 -1.543792430E-03
 6.499999762E-01 1.282204986E-01 -1.527092652E-03
 6.499999762E-01 1.287447959E-01 -1.512333634E-03
 6.499999762E-01 1.292918026E-01 -1.499356702E-03
 6.499999762E-01 1.298626065E-01 -1.487901900E-03
 6.499999762E-01 1.304582059E-01 -1.475517638E-03
 6.499999762E-01 1.310797036E-01 -1.460412983E-03
 6.499999762E-01 1.317282021E-01 -1.445816946E-03
 6.499999762E-01 1.324048936E-01 -1.432694611E-03
 6.499999762E-01 1.331108958E-01 -1.420330722E-03
 6.499999762E-01 1.338475943E-01 -1.408368582E-03
 6.499999762E-01 1.346161962E-01 -1.396531356E-03
 6.499999762E-01 1.354182065E-01 -1.384575269E-03
 6.499999762E-01 1.362549067E-01 -1.372301485E-03
 6.499999762E-01 1.371279955E-01 -1.359535730E-03
 6.499999762E-01 1.380387992E-01 -1.346133300E-03
 6.499999762E-01 1.389891952E-01 -1.331957523E-03
 6.499999762E-01 1.399807930E-01 -1.316883252E-03
 6.499999762E-01 1.410153955E-01 -1.300783246E-03
 6.499999762E-01 1.420948058E-01 -1.283523627E-03
 6.499999762E-01 1.432210058E-01 -1.264957595E-03
 6.499999762E-01 1.443960965E-01 -1.244925894E-03
 6.499999762E-01 1.456221044E-01 -1.223262516E-03
 6.499999762E-01 1.469012052E-01 -1.199816237E-03
 6.499999762E-01 1.482359022E-01 -1.174643636E-03
 6.499999762E-01 1.496284008E-01 -1.147804665E-03
 6.499999762E-01 1.510812938E-01 -1.117103267E-03
 6.499999762E-01 1.525972933E-01 -1.081533730E-03
 6.499999762E-01 1.541790068E-01 -1.043617376E-03
 6.499999762E-01 1.558292955E-01 -1.003268757E-03
 6.499999762E-01 1.575511992E-01 -9.603364742E-04
 6.499999762E-01 1.593476981E-01 -9.147290257E-04
 6.499999762E-01 1.612222940E-01 -8.663924527E-04
 6.499999762E-01 1.631781012E-01 -8.153115632E-04
 6.499999762E-01 1.652188003E-01 -7.614890346E-04
 6.499999762E-01 1.673479974E-01 -7.049955893E-04
 6.499999762E-01 1.695697010E-01 -6.459743017E-04
 6.499999762E-01 1.718876958E-01 -5.848110304E-04
 6.499999762E-01 1.743061990E-01 -5.223493790E-04
 6.499999762E-01 1.768296957E-01 -4.598536470E-04
 6.499999762E-01 1.794627011E-01 -3.935904824E-04
 6.499999762E-01 1.822099984E-01 -3.208589624E-04
 6.499999762E-01 1.850764006E-01 -2.473983914E-04
 6.499999762E-01 1.880671978E-01 -1.769080554E-04
 6.499999762E-01 1.911877990E-01 -1.129180528E-04
 6.499999762E-01 1.944438070E-01 -5.957028407E-05
 6.499999762E-01 1.978410035E-01 -2.020179272E-05
 6.499999762E-01 2.013857067E-01 3.805546385E-06
 6.499999762E-01 2.050842047E-01 1.381972106E-05
 6.499999762E-01 2.089432031E-01 1.396201878E-05
 6.499999762E-01 2.129696012E-01 9.700419469E-06
 6.499999762E-01 2.171707004E-01 5.335214610E-06
 6.499999762E-01 2.215541005E-01 2.533214911E-06
 6.499999762E-01 2.261276990E-01 1.112284281E-06
 6.499999762E-01 2.308997959E-01 4.681558607E-07
 6.499999762E-01 2.358788997E-01 1.906716705E-07
 6.499999762E-01 2.410741001E-01 7.582234218E-08
 6.499999762E-01 2.464946955E-01 3.044786112E-08
 6.499999762E-01 2.521505058E-01 1.341405209E-08
 6.499999762E-01 2.580518126E-01 7.336898200E-09
 6.499999762E-01 2.642090023E-01 5.260465397E-09
 6.499999762E-01 2.706334889E-01 4.559128630E-09
 6.499999762E-01 2.773366868E-01 4.300226397E-09
 6.499999762E-01 2.843307853E-01 4.172649781E-09
 6.499999762E-01 2.916283906E-01 4.079280913E-09
 6.499999762E-01 2.992425859E-01 3.991917019E-09
 6.499999762E-01 3.071871996E-01 3.903086299E-09
 6.499999762E-01 3.154765964E-01 3.811130966E-09
 6.499999762E-01 3.241255879E-01 3.715899144E-09
 6.499999762E-01 3.331499100E-01 3.617583566E-09
 6.499999762E-01 3.425656855E-01 3.516441360E-09
 6.499999762E-01 3.523901999E-01 3.412719884E-09
 6.499999762E-01 3.626408875E-01 3.306658281E-09
 6.499999762E-01 3.733364046E-01 3.198477483E-09
 6.499999762E-01 3.844959140E-01 3.088390432E-09
 6.499999762E-01 3.961397111E-01 2.976600744E-09
 6.499999762E-01 4.082886875E-01 2.863311366E-09
 6.499999762E-01 4.209648073E-01 2.748724137E-09
 6.499999762E-01 4.341908991E-01 2.633044671E-09
 6.499999762E-01 4.479908943E-01 2.516483910E-09
 6.499999762E-01 4.623895884E-01 2.399263899E-09
 6.499999762E-01 4.774130881E-01 2.281616007E-09
 6.499999762E-01 4.930885136E-01 2.163788482E-09
 6.499999762E-01 5.094438791E-01 2.046051550E-09
 6.499999762E-01 5.265089869E-01 1.928717852E-09
 6.499999762E-01 5.443145037E-01 1.812091588E-09
 6.499999762E-01 5.628924966E-01 1.696543017E-09
 6.499999762E-01 5.822765231E-01 1.582451503E-09
 6.499999762E-01 6.025015712E-01 1.470242816E-09
 6.499999762E-01 6.236041188E-01 1.360301649E-09
 6.499999762E-01 6.456223130E-01 1.253803728E-09
 6.499999762E-01 6.685956120E-01 1.152877793E-09
 6.499999762E-01 6.925656796E-01 1.062852251E-09
 6.499999762E-01 7.175757289E-01 9.835628978E-10
 6.499999762E-01 7.436707020E-01 8.981375643E-10
 6.499999762E-01 7.708979249E-01 7.522198420E-10
 6.499999762E-01 7.993062735E-01 6.360076910E-10
 6.499999762E-01 8.289471269E-01 1.093331314E-09
 6.499999762E-01 8.598734736E-01 1.521724413E-09
 6.499999762E-01 8.921396732E-01 0.000000000E+00
ZONE T="x/c=0.8"
 8.000000119E-01 2.460199967E-02 0.000000000E+00
 8.000000119E-01 2.461059950E-02 4.252353678E-13
 8.000000119E-01 2.461968921E-02 9.286969631E-12
 8.000000119E-01 2.462900989E-02 7.766341736E-11
 8.000000119E-01 2.463857085E-02 4.108034746E-10
 8.000000119E-01 2.464839071E-02 1.604634758E-09
 8.000000119E-01 2.465848066E-02 4.746421478E-09
 8.000000119E-01 2.466885932E-02 1.178012976E-08
 8.000000119E-01 2.467953973E-02 2.589153958E-08
 8.000000119E-01 2.469055913E-02 5.278701209E-08
 8.000000119E-01 2.470193058E-02 1.032390102E-07
 8.000000119E-01 2.471365966E-02 1.880460445E-07
 8.000000119E-01 2.472578920E-02 3.243719391E-07
 8.000000119E-01 2.473831922E-02 5.404391459E-07
 8.000000119E-01 2.475129999E-02 8.833190464E-07
 8.000000119E-01 2.476472966E-02 1.389870590E-06
 8.000000119E-01 2.477863990E-02 2.118737257E-06
 8.000000119E-01 2.479306050E-02 3.177401368E-06
 8.000000119E-01 2.480801009E-02 4.672891919E-06
 8.000000119E-01 2.482352033E-02 6.690787814E-06
 8.000000119E-01 2.483961917E-02 9.347905689E-06
 8.000000119E-01 2.485634014E-02 1.288037220E-05
 8.000000119E-01 2.487370931E-02 1.735346268E-05
 8.000000119E-01 2.489176020E-02 2.283914546E-05
 8.000000119E-01 2.491050959E-02 2.935927660E-05
 8.000000119E-01 2.493002079E-02 3.701453898E-05
 8.000000119E-01 2.495029941E-02 4.565625932E-05
 8.000000119E-01 2.497139946E-02 5.510669871E-05
 8.000000119E-01 2.499335073E-02 6.516624853E-05
 8.000000119E-01 2.501620911E-02 7.560544327E-05
 8.000000119E-01 2.503998950E-02 8.614909166E-05
 8.000000119E-01 2.506476082E-02 9.660426440E-05
 8.000000119E-01 2.509054914E-02 1.067657140E-04
 8.000000119E-01 2.511741035E-02 1.164818459E-04
 8.000000119E-01 2.514538914E-02 1.256266551E-04
 8.000000119E-01 2.517453954E-02 1.340436138E-04
 8.000000119E-01 2.520490997E-02 1.417080202E-04
 8.000000119E-01 2.523656003E-02 1.486401306E-04
 8.000000119E-01 2.526954003E-02 1.548344444E-04
 8.000000119E-01 2.530392073E-02 1.602973934E-04
 8.000000119E-01 2.533975057E-02 1.650481136E-04
 8.000000119E-01 2.537710033E-02 1.691131474E-04
 8.000000119E-01 2.541604079E-02 1.724887697E-04
 8.000000119E-01 2.545664087E-02 1.752105745E-04
 8.000000119E-01 2.549898066E-02 1.773520344E-04
 8.000000119E-01 2.554311045E-02 1.789405942E-04
 8.000000119E-01 2.558914013E-02 1.800060563E-04
 8.000000119E-01 2.563714050E-02 1.805747597E-04
 8.000000119E-01 2.568719909E-02 1.806707878E-04
 8.000000119E-01 2.573939972E-02 1.803157356E-04
 8.000000119E-01 2.579385042E-02 1.795257995E-04
 8.000000119E-01 2.585064061E-02 1.783158659E-04
 8.000000119E-01 2.590987086E-02 1.766948990E-04
 8.000000119E-01 2.597164921E-02 1.746601629E-04
 8.000000119E-01 2.603610046E-02 1.722372253E-04
 8.000000119E-01 2.610331960E-02 1.694323291E-04
 8.000000119E-01 2.617345005E-02 1.662461873E-04
 8.000000119E-01 2.624659985E-02 1.626808953E-04
 8.000000119E-01 2.632291056E-02 1.587350416E-04
 8.000000119E-01 2.640252002E-02 1.544059196E-04
 8.000000119E-01 2.648556978E-02 1.496912882E-04
 8.000000119E-01 2.657221071E-02 1.445846865E-04
 8.000000119E-01 2.666259930E-02 1.390791876E-04
 8.000000119E-01 2.675689943E-02 1.331665553E-04
 8.000000119E-01 2.685528994E-02 1.268377237E-04
 8.000000119E-01 2.695792913E-02 1.200847910E-04
 8.000000119E-01 2.706502005E-02 1.128936565E-04
 8.000000119E-01 2.717675082E-02 1.052535881E-04
 8.000000119E-01 2.729333006E-02 9.715194028E-05
 8.000000119E-01 2.741494961E-02 8.857445209E-05
 8.000000119E-01 2.754184976E-02 7.950689906E-05
 8.000000119E-01 2.767425030E-02 6.993219722E-05
 8.000000119E-01 2.781240083E-02 5.983190567E-05
 8.000000119E-01 2.795653977E-02 4.919236744E-05
 8.000000119E-01 2.810692973E-02 3.799573460E-05