# CFL3D results for NASA wall-mounted hump, 817 x 217 grid, no plenum, k-kL-MEAH2015 model
# Cp has been shifted by -0.015 to better match experimental reference upstream
VARIABLES = "x","cp"
zone, t="CFL3D"
 -6.389999866E+00 1.251691114E-02
 -6.193347454E+00 8.892948739E-03
 -6.009354115E+00 5.483562592E-03
 -5.836683750E+00 4.839832429E-03
 -5.674179554E+00 3.516609548E-03
 -5.520833969E+00 2.574856160E-03
 -5.375766277E+00 1.752311946E-03
 -5.238201618E+00 1.060898066E-03
 -5.107457638E+00 4.171669716E-04
 -4.982929230E+00 -1.669585326E-04
 -4.864077091E+00 -7.272422081E-04
 -4.750422001E+00 -1.251763082E-03
 -4.641533375E+00 -1.740521169E-03
 -4.537024498E+00 -2.217358211E-03
 -4.436547279E+00 -2.670353511E-03
 -4.339786053E+00 -3.099506954E-03
 -4.246456146E+00 -3.504818538E-03
 -4.156297684E+00 -3.898209194E-03
 -4.069073200E+00 -4.279679153E-03
 -3.984566927E+00 -4.649227951E-03
 -3.902580500E+00 -5.006855819E-03
 -3.822931528E+00 -5.340641830E-03
 -3.745452166E+00 -5.674427841E-03
 -3.669987679E+00 -5.996292923E-03
 -3.596394062E+00 -6.306237075E-03
 -3.524538517E+00 -6.604260299E-03
 -3.454297304E+00 -6.902283523E-03
 -3.385554552E+00 -7.188385818E-03
 -3.318202972E+00 -7.462567184E-03
 -3.252140760E+00 -7.736748550E-03
 -3.187273502E+00 -8.010929450E-03
 -3.123511314E+00 -8.273189887E-03
 -3.060770035E+00 -8.523529395E-03
 -2.998969555E+00 -8.785789832E-03
 -2.938034296E+00 -9.024208412E-03
 -2.877891541E+00 -9.274547920E-03
 -2.818472862E+00 -9.512966499E-03
 -2.759711981E+00 -9.751385078E-03
 -2.701545477E+00 -9.989803657E-03
 -2.643912792E+00 -1.021630131E-02
 -2.586754560E+00 -1.044279896E-02
 -2.530013800E+00 -1.066929661E-02
 -2.473634958E+00 -1.089579426E-02
 -2.417564154E+00 -1.112229191E-02
 -2.361747980E+00 -1.133686863E-02
 -2.306134462E+00 -1.155144535E-02
 -2.250672579E+00 -1.176602207E-02
 -2.195311069E+00 -1.198059879E-02
 -2.140000105E+00 -1.219517551E-02
 -2.084626913E+00 -1.240975223E-02
 -2.029022455E+00 -1.262432896E-02
 -1.973270178E+00 -1.283890568E-02
 -1.917454720E+00 -1.304156147E-02
 -1.861660838E+00 -1.325613819E-02
 -1.805973530E+00 -1.345879398E-02
 -1.750476718E+00 -1.364952885E-02
 -1.695253372E+00 -1.384026371E-02
 -1.640385032E+00 -1.403099857E-02
 -1.585950851E+00 -1.420981251E-02
 -1.532027364E+00 -1.437670551E-02
 -1.478688359E+00 -1.453167759E-02
 -1.426004291E+00 -1.468664967E-02
 -1.374041557E+00 -1.480585895E-02
 -1.322863102E+00 -1.491314732E-02
 -1.272527337E+00 -1.499659382E-02
 -1.223088264E+00 -1.505619846E-02
 -1.174595237E+00 -1.506811939E-02
 -1.127093196E+00 -1.504427753E-02
 -1.080622077E+00 -1.496083103E-02
 -1.035216928E+00 -1.482970081E-02
 -9.909083843E-01 -1.461512409E-02
 -9.477221370E-01 -1.430517994E-02
 -9.056792855E-01 -1.391178928E-02
 -8.647964001E-01 -1.338726841E-02
 -8.250858784E-01 -1.271969639E-02
 -7.865558267E-01 -1.190907322E-02
 -7.492104173E-01 -1.090771519E-02
 -7.130500674E-01 -9.703701362E-03
 -6.780717373E-01 -8.285110816E-03
 -6.442689896E-01 -6.628102157E-03
 -6.116324067E-01 -4.696911667E-03
 -5.801498890E-01 -2.479618648E-03
 -5.498065948E-01 3.569725959E-05
 -5.205855370E-01 2.872879384E-03
 -4.924676716E-01 6.055767182E-03
 -4.654320478E-01 9.596283548E-03
 -4.394561648E-01 1.349442732E-02
 -4.145162106E-01 1.777403802E-02
 -3.905871212E-01 2.243512124E-02
 -3.676429093E-01 2.747767419E-02
 -3.456568122E-01 3.290169686E-02
 -3.246014714E-01 3.871911019E-02
 -3.044490218E-01 4.490607232E-02
 -2.851713896E-01 5.147450417E-02
 -2.667402625E-01 5.840056390E-02
 -2.491273433E-01 6.568425149E-02
 -2.323043942E-01 7.330172509E-02
 -2.162433565E-01 8.124106377E-02
 -2.009164393E-01 8.946650475E-02
 -1.862962097E-01 9.797804803E-02
 -1.723556370E-01 1.067399308E-01
 -1.590681821E-01 1.157283187E-01
 -1.464078426E-01 1.249074340E-01
 -1.343491822E-01 1.342415214E-01
 -1.228673831E-01 1.437067389E-01
 -1.119382828E-01 1.532673240E-01
 -1.015383676E-01 1.628755927E-01
 -9.164482355E-02 1.725077033E-01
 -8.223553747E-02 1.821159720E-01
 -7.328910381E-02 1.916646361E-01
 -6.478483975E-02 2.011179328E-01
 -5.670275167E-02 2.104281783E-01
 -4.902358353E-02 2.195357680E-01
 -4.172877595E-02 2.283453345E-01
 -3.480046988E-02 2.369164675E-01
 -2.822149359E-02 2.450107783E-01
 -2.197535709E-02 2.528905272E-01
 -1.604623348E-02 2.592443824E-01
 -1.041894220E-02 2.669333816E-01
 -5.078937393E-03 2.613782287E-01
 -1.229149075E-05 2.789139152E-01
 4.971283488E-03 2.916097045E-01
 9.981548414E-03 2.835273147E-01
 1.499574352E-02 2.902030349E-01
 1.999812201E-02 2.904295325E-01
 2.497619577E-02 2.913355231E-01
 2.992111072E-02 2.903222442E-01
 3.482796997E-02 2.879142165E-01
 3.969550505E-02 2.835869193E-01
 4.452570900E-02 2.768754363E-01
 4.932503402E-02 2.673267722E-01
 5.410103127E-02 2.549528480E-01
 5.886176601E-02 2.392648906E-01
 6.361807138E-02 2.192615867E-01
 6.838410348E-02 1.953720450E-01
 7.316932827E-02 1.679300666E-01
 7.798470557E-02 1.355170608E-01
 8.284387738E-02 9.968274087E-02
 8.775380999E-02 6.073706597E-02
 9.272717685E-02 1.653426141E-02
 9.777998924E-02 -2.827650867E-02
 1.029170230E-01 -7.423169166E-02
 1.081494316E-01 -1.169086173E-01
 1.134674847E-01 -1.526117921E-01
 1.188622937E-01 -1.851678491E-01
 1.243234724E-01 -2.149701715E-01
 1.298440844E-01 -2.432108521E-01
 1.354170293E-01 -2.707243562E-01
 1.410381049E-01 -2.962589860E-01
 1.466986984E-01 -3.216863275E-01
 1.523962468E-01 -3.480911851E-01
 1.581261456E-01 -3.753066659E-01
 1.638893634E-01 -4.058838487E-01
 1.696886420E-01 -4.344106317E-01
 1.755220145E-01 -4.613042474E-01
 1.813897640E-01 -4.852772355E-01
 1.872870624E-01 -5.054116845E-01
 1.932105720E-01 -5.242825150E-01
 1.991565675E-01 -5.411029458E-01
 2.051216960E-01 -5.565643907E-01
 2.111027539E-01 -5.707622170E-01
 2.170968503E-01 -5.834460855E-01
 2.231006473E-01 -5.948305726E-01
 2.291112393E-01 -6.052137017E-01
 2.351255268E-01 -6.143689752E-01
 2.411404699E-01 -6.231308579E-01
 2.471534908E-01 -6.311655641E-01
 2.531616986E-01 -6.389141679E-01
 2.591629028E-01 -6.463170648E-01
 2.651544809E-01 -6.534219384E-01
 2.711344063E-01 -6.601811051E-01
 2.771002352E-01 -6.667018533E-01
 2.830500305E-01 -6.728768945E-01
 2.889814079E-01 -6.788850427E-01
 2.948926091E-01 -6.846666932E-01
 3.007812798E-01 -6.902456880E-01
 3.066457212E-01 -6.960154176E-01
 3.124839067E-01 -7.015467286E-01
 3.182940781E-01 -7.074237466E-01
 3.240746260E-01 -7.132650018E-01
 3.298239112E-01 -7.190943360E-01
 3.355403543E-01 -7.248521447E-01
 3.412224948E-01 -7.305145860E-01
 3.468688130E-01 -7.359028459E-01
 3.524778187E-01 -7.412315011E-01
 3.580481410E-01 -7.463336587E-01
 3.635783792E-01 -7.512927651E-01
 3.690672517E-01 -7.561207414E-01
 3.745134473E-01 -7.607222199E-01
 3.799158037E-01 -7.652521729E-01
 3.852730691E-01 -7.694960237E-01
 3.905842006E-01 -7.736921906E-01
 3.958480954E-01 -7.775068879E-01
 4.010636806E-01 -7.813096642E-01
 4.062300324E-01 -7.848978639E-01
 4.113461971E-01 -7.883668542E-01
 4.164113402E-01 -7.916927934E-01
 4.214245677E-01 -7.948160768E-01
 4.263851941E-01 -7.979274392E-01
 4.312924743E-01 -8.008361459E-01
 4.361457527E-01 -8.036256433E-01
 4.409444034E-01 -8.060575128E-01
 4.456878304E-01 -8.085489869E-01
 4.503755569E-01 -8.106351495E-01
 4.550070465E-01 -8.127093911E-01
 4.595818818E-01 -8.149147630E-01
 4.640997350E-01 -8.169294000E-01
 4.685602486E-01 -8.185983300E-01
 4.729631245E-01 -8.201718926E-01
 4.773081839E-01 -8.212566972E-01
 4.815950990E-01 -8.219361901E-01
 4.858237505E-01 -8.227229714E-01
 4.899940193E-01 -8.231044412E-01
 4.941057563E-01 -8.236885667E-01
 4.981589615E-01 -8.241296411E-01
 5.021536350E-01 -8.245587945E-01
 5.060898066E-01 -8.249045014E-01
 5.099675655E-01 -8.251309991E-01
 5.137869120E-01 -8.251309991E-01
 5.175480843E-01 -8.250594735E-01
 5.212512016E-01 -8.246303201E-01
 5.248964429E-01 -8.241415620E-01
 5.284840465E-01 -8.234859109E-01
 5.320143104E-01 -8.226991296E-01
 5.354874730E-01 -8.220673203E-01
 5.389038324E-01 -8.212805390E-01
 5.422637463E-01 -8.205175996E-01
 5.455675125E-01 -8.196235299E-01
 5.488154888E-01 -8.183122277E-01
 5.520081520E-01 -8.168936372E-01
 5.551458001E-01 -8.150697351E-01
 5.582290292E-01 -8.131385446E-01
 5.612582564E-01 -8.113027215E-01
 5.642338991E-01 -8.093238473E-01
 5.671564937E-01 -8.076429963E-01
 5.700265169E-01 -8.056641221E-01
 5.728443861E-01 -8.037329316E-01
 5.756106973E-01 -8.012652993E-01
 5.783259273E-01 -7.985830903E-01
 5.809906125E-01 -7.954240441E-01
 5.836054087E-01 -7.919669747E-01
 5.861707926E-01 -7.884145379E-01
 5.886874199E-01 -7.844687104E-01
 5.911558867E-01 -7.806659341E-01
 5.935767889E-01 -7.764936090E-01
 5.959507227E-01 -7.722020745E-01
 5.982782841E-01 -7.678986192E-01
 6.005600691E-01 -7.632732987E-01
 6.027967930E-01 -7.586241364E-01
 6.049889922E-01 -7.538557649E-01
 6.071373224E-01 -7.488012910E-01
 6.092423797E-01 -7.436991334E-01
 6.113048196E-01 -7.385373712E-01
 6.133252978E-01 -7.331133485E-01
 6.153044105E-01 -7.275820374E-01
 6.172427535E-01 -7.220268846E-01
 6.191409230E-01 -7.163286805E-01
 6.209995151E-01 -7.104397416E-01
 6.228191257E-01 -7.042050958E-01
 6.246002316E-01 -6.976128221E-01
 6.263435483E-01 -6.907106042E-01
 6.280496120E-01 -6.835222840E-01
 6.297190189E-01 -6.759167314E-01
 6.313524246E-01 -6.678701043E-01
 6.329504848E-01 -6.596208215E-01
 6.345138550E-01 -6.512404084E-01
 6.360431314E-01 -6.426454186E-01
 6.375389695E-01 -6.339192986E-01
 6.390020847E-01 -6.250382066E-01
 6.404330730E-01 -6.162882447E-01
 6.418324709E-01 -6.073713899E-01
 6.432008147E-01 -5.986691117E-01
 6.445382237E-01 -5.901456475E-01
 6.458451152E-01 -5.811811090E-01
 6.471215487E-01 -5.716920495E-01
 6.483679414E-01 -5.616665483E-01
 6.495844126E-01 -5.512238145E-01
 6.507712603E-01 -5.398512483E-01
 6.519286633E-01 -5.288839936E-01
 6.530569196E-01 -5.135655999E-01
 6.541569829E-01 -5.058408380E-01
 6.552426219E-01 -4.955530763E-01
 6.563252211E-01 -4.788756967E-01
 6.574048400E-01 -4.650951028E-01
 6.584813595E-01 -4.570484757E-01
 6.595475674E-01 -4.503250718E-01
 6.606068015E-01 -4.386425614E-01
 6.616584063E-01 -4.314542413E-01
 6.627017856E-01 -4.244208932E-01
 6.637362242E-01 -4.187226892E-01
 6.647611856E-01 -4.139185548E-01
 6.657756567E-01 -4.101753831E-01
 6.667792201E-01 -4.070282578E-01
 6.677718759E-01 -4.045129418E-01
 6.687542796E-01 -4.023790956E-01
 6.697271466E-01 -4.007578492E-01
 6.706909537E-01 -3.994465470E-01
 6.716465354E-01 -3.983498216E-01
 6.725944877E-01 -3.974795938E-01
 6.735351682E-01 -3.968120217E-01
 6.744686961E-01 -3.962517381E-01
 6.753956079E-01 -3.957868218E-01
 6.763161421E-01 -3.953815103E-01
 6.772308946E-01 -3.950477242E-01
 6.781398654E-01 -3.947616220E-01
 6.790437698E-01 -3.944874406E-01
 6.799428463E-01 -3.942609429E-01
 6.808373332E-01 -3.940463662E-01
 6.817275882E-01 -3.938556314E-01
 6.826142073E-01 -3.936768174E-01
 6.834974885E-01 -3.935099244E-01
 6.843776703E-01 -3.933668733E-01
 6.852552295E-01 -3.932238221E-01
 6.861305237E-01 -3.930807710E-01
 6.870038509E-01 -3.929615617E-01
 6.878758669E-01 -3.928542733E-01
 6.887465715E-01 -3.927469850E-01
 6.896161437E-01 -3.926516175E-01
 6.904847026E-01 -3.925562501E-01
 6.913521886E-01 -3.924608827E-01
 6.922190189E-01 -3.923774362E-01
 6.930850744E-01 -3.922939897E-01
 6.939505935E-01 -3.922105432E-01
 6.948158145E-01 -3.921390176E-01
 6.956813335E-01 -3.920794129E-01
 6.965474486E-01 -3.920198083E-01
 6.974145770E-01 -3.919721246E-01
 6.982832551E-01 -3.919244409E-01
 6.991535425E-01 -3.918886781E-01
 7.000254989E-01 -3.918529153E-01
 7.008991838E-01 -3.918171525E-01
 7.017741203E-01 -3.917813897E-01
 7.026505470E-01 -3.917694688E-01
 7.035278678E-01 -3.917337060E-01
 7.044059038E-01 -3.916979432E-01
 7.052846551E-01 -3.916860223E-01
 7.061639428E-01 -3.916621804E-01
 7.070435286E-01 -3.916383386E-01
 7.079234719E-01 -3.916264176E-01
 7.088037133E-01 -3.915906549E-01
 7.096842527E-01 -3.915787339E-01
 7.105658054E-01 -3.915668130E-01
 7.114484310E-01 -3.915668130E-01
 7.123321295E-01 -3.915548921E-01
 7.132170200E-01 -3.915429711E-01
 7.141031027E-01 -3.915310502E-01
 7.149909735E-01 -3.915429711E-01
 7.158810496E-01 -3.915429711E-01
 7.167731524E-01 -3.915429711E-01
 7.176673412E-01 -3.915429711E-01
 7.185637951E-01 -3.915429711E-01
 7.194626927E-01 -3.915548921E-01
 7.203642726E-01 -3.915787339E-01
 7.212685943E-01 -3.915906549E-01
 7.221754789E-01 -3.916025758E-01
 7.230848074E-01 -3.916144967E-01
 7.239966393E-01 -3.916383386E-01
 7.249109745E-01 -3.916621804E-01
 7.258276343E-01 -3.916860223E-01
 7.267465591E-01 -3.917098641E-01
 7.276678085E-01 -3.917337060E-01
 7.285913825E-01 -3.917575479E-01
 7.295172215E-01 -3.917933106E-01
 7.304453850E-01 -3.918290734E-01
 7.313758135E-01 -3.918529153E-01
 7.323082685E-01 -3.918886781E-01
 7.332428694E-01 -3.919244409E-01
 7.341796756E-01 -3.919482827E-01
 7.351190448E-01 -3.919959664E-01
 7.360612154E-01 -3.920436502E-01
 7.370058894E-01 -3.920913339E-01
 7.379530072E-01 -3.921270967E-01
 7.389026284E-01 -3.921747804E-01
 7.398548722E-01 -3.922224641E-01
 7.408100367E-01 -3.922820687E-01
 7.417680621E-01 -3.923297524E-01
 7.427288294E-01 -3.923893571E-01
 7.436922789E-01 -3.924489617E-01
 7.446584702E-01 -3.925085664E-01
 7.456274629E-01 -3.925681710E-01
 7.465993166E-01 -3.926396966E-01
 7.475739717E-01 -3.926993012E-01
 7.485512495E-01 -3.927708268E-01
 7.495313883E-01 -3.928423524E-01
 7.505143881E-01 -3.929257989E-01
 7.515002489E-01 -3.929973245E-01
 7.524887919E-01 -3.930807710E-01
 7.534800768E-01 -3.931642175E-01
 7.544740438E-01 -3.932476640E-01
 7.554708719E-01 -3.933430314E-01
 7.564706206E-01 -3.934383988E-01
 7.574731112E-01 -3.935337663E-01
 7.584781647E-01 -3.936172128E-01
 7.594859004E-01 -3.937245011E-01
 7.604963779E-01 -3.938317895E-01
 7.615096569E-01 -3.939390779E-01
 7.625257373E-01 -3.940463662E-01
 7.635446191E-01 -3.941655755E-01
 7.645660639E-01 -3.942847848E-01
 7.655901313E-01 -3.944039941E-01
 7.666167617E-01 -3.945232034E-01
 7.676460147E-01 -3.946543336E-01
 7.686778903E-01 -3.947973847E-01
 7.697122693E-01 -3.949285150E-01
 7.707492709E-01 -3.950715661E-01
 7.717889547E-01 -3.952146173E-01
 7.728313208E-01 -3.953695893E-01
 7.738761902E-01 -3.955245614E-01
 7.749235034E-01 -3.956914544E-01
 7.759732604E-01 -3.958583474E-01
 7.770254016E-01 -3.960252404E-01
 7.780798674E-01 -3.962040544E-01
 7.791367173E-01 -3.963828683E-01
 7.801958919E-01 -3.965616822E-01
 7.812573314E-01 -3.967524171E-01
 7.823210359E-01 -3.969550729E-01
 7.833869457E-01 -3.971577287E-01
 7.844550610E-01 -3.973603845E-01
 7.855252028E-01 -3.975749612E-01
 7.865974307E-01 -3.978014588E-01
 7.876716256E-01 -3.980160356E-01
 7.887478471E-01 -3.982544541E-01
 7.898259759E-01 -3.984809518E-01
 7.909059525E-01 -3.987312913E-01
 7.919877768E-01 -3.989697099E-01
 7.930713296E-01 -3.992200494E-01
 7.941566110E-01 -3.994703889E-01
 7.952436805E-01 -3.997326493E-01
 7.963325381E-01 -4.000068307E-01
 7.974230647E-01 -4.002810121E-01
 7.985152602E-01 -4.005671144E-01
 7.996091247E-01 -4.008532166E-01
 8.007046580E-01 -4.011512399E-01
 8.018017411E-01 -4.014373422E-01
 8.029003739E-01 -4.017472863E-01
 8.040005565E-01 -4.020691514E-01
 8.051022291E-01 -4.023910165E-01
 8.062053919E-01 -4.027128816E-01
 8.073099256E-01 -4.030347466E-01
 8.084158301E-01 -4.033804536E-01
 8.095231652E-01 -4.037380815E-01
 8.106318712E-01 -4.040837884E-01
 8.117417693E-01 -4.044414163E-01
 8.128529191E-01 -4.047990441E-01
 8.139652610E-01 -4.051566720E-01
 8.150786757E-01 -4.055381417E-01
 8.161932230E-01 -4.058957696E-01
 8.173089027E-01 -4.062772393E-01
 8.184257746E-01 -4.066706300E-01
 8.195437193E-01 -4.070640206E-01
 8.206627965E-01 -4.074693322E-01
 8.217829466E-01 -4.078746438E-01
 8.229040504E-01 -4.082680345E-01
 8.240262270E-01 -4.086852670E-01
 8.251494169E-01 -4.091024995E-01
 8.262735605E-01 -4.095197320E-01
 8.273986578E-01 -4.099608064E-01
 8.285248280E-01 -4.104018807E-01
 8.296518326E-01 -4.108429551E-01
 8.307797909E-01 -4.112840295E-01
 8.319085240E-01 -4.117012620E-01
 8.330380917E-01 -4.121542573E-01
 8.341686130E-01 -4.126430154E-01
 8.352999687E-01 -4.131079316E-01
 8.364321589E-01 -4.135728478E-01
 8.375651240E-01 -4.140377641E-01
 8.386987448E-01 -4.144669175E-01
 8.398330808E-01 -4.149556756E-01
 8.409682512E-01 -4.154563546E-01
 8.421040773E-01 -4.159212708E-01
 8.432406187E-01 -4.164100289E-01
 8.443777561E-01 -4.168511033E-01
 8.455155492E-01 -4.173160195E-01
 8.466539979E-01 -4.178047776E-01
 8.477931023E-01 -4.182816148E-01
 8.489328027E-01 -4.187584519E-01
 8.500731587E-01 -4.192352891E-01
 8.512141109E-01 -4.196882844E-01
 8.523555994E-01 -4.201532006E-01
 8.534977436E-01 -4.206419587E-01
 8.546404839E-01 -4.211068749E-01
 8.557838202E-01 -4.215717912E-01
 8.569277525E-01 -4.220486283E-01
 8.580722213E-01 -4.224897027E-01
 8.592172265E-01 -4.229546189E-01
 8.603628278E-01 -4.234314561E-01
 8.615089655E-01 -4.238606095E-01
 8.626556993E-01 -4.243255258E-01
 8.638029099E-01 -4.247904420E-01
 8.649507165E-01 -4.252315164E-01
 8.660990000E-01 -4.256845117E-01
 8.672478199E-01 -4.261255860E-01
 8.683971763E-01 -4.265308976E-01
 8.695469499E-01 -4.269838929E-01
 8.706973195E-01 -4.274249673E-01
 8.718481660E-01 -4.278183579E-01
 8.729994893E-01 -4.282475114E-01
 8.741512895E-01 -4.286528230E-01
 8.753035665E-01 -4.290223718E-01
 8.764562607E-01 -4.294157624E-01
 8.776094317E-01 -4.297972322E-01
 8.787630796E-01 -4.301429391E-01
 8.799171448E-01 -4.305124879E-01
 8.810716867E-01 -4.308701158E-01
 8.822267056E-01 -4.311800599E-01
 8.833821416E-01 -4.315138459E-01
 8.845380545E-01 -4.318237901E-01
 8.856943846E-01 -4.321098924E-01
 8.868511319E-01 -4.323840737E-01
 8.880083561E-01 -4.326463342E-01
 8.891659975E-01 -4.329085946E-01
 8.903241158E-01 -4.331470132E-01
 8.914826512E-01 -4.333735108E-01
 8.926417232E-01 -4.336119294E-01
 8.938012123E-01 -4.338026643E-01
 8.949611187E-01 -4.339933991E-01
 8.961215615E-01 -4.341841340E-01
 8.972824216E-01 -4.343510270E-01
 8.984437585E-01 -4.345059991E-01
 8.996055722E-01 -4.346490502E-01
 9.007678628E-01 -4.347801805E-01
 9.019306302E-01 -4.349113107E-01
 9.030938148E-01 -4.350066781E-01
 9.042574763E-01 -4.350662827E-01
 9.054215550E-01 -4.351258874E-01
 9.065861702E-01 -4.351735711E-01
 9.077511430E-01 -4.351616502E-01
 9.089166522E-01 -4.351735711E-01
 9.100825787E-01 -4.351735711E-01
 9.112490416E-01 -4.350901246E-01
 9.124159217E-01 -4.350662827E-01
 9.135833383E-01 -4.350305200E-01
 9.147512317E-01 -4.348993897E-01
 9.159196019E-01 -4.348159432E-01
 9.170885086E-01 -4.347205758E-01
 9.182578921E-01 -4.345536828E-01
 9.194278121E-01 -4.344583154E-01
 9.205982685E-01 -4.343391061E-01
 9.217692018E-01 -4.341483712E-01
 9.229406714E-01 -4.340053201E-01
 9.241126776E-01 -4.338384271E-01
 9.252851605E-01 -4.336000085E-01
 9.264581203E-01 -4.334211946E-01
 9.276316762E-01 -4.331946969E-01
 9.288057089E-01 -4.329562783E-01
 9.299802780E-01 -4.327774644E-01
 9.311553836E-01 -4.325390458E-01
 9.323310256E-01 -4.322648644E-01
 9.335071445E-01 -4.320502877E-01
 9.346837401E-01 -4.317641854E-01
 9.358608723E-01 -4.314661622E-01
 9.370385408E-01 -4.312277436E-01
 9.382166862E-01 -4.309416413E-01
 9.393953085E-01 -4.306793809E-01
 9.405744672E-01 -4.304409623E-01
 9.417541027E-01 -4.301548600E-01
 9.429341555E-01 -4.298449159E-01
 9.441146851E-01 -4.295468926E-01
 9.452956915E-01 -4.292369485E-01
 9.464771748E-01 -4.289508462E-01
 9.476590753E-01 -4.286647439E-01
 9.488413930E-01 -4.283547997E-01
 9.500241876E-01 -4.280448556E-01
 9.512073994E-01 -4.277349114E-01
 9.523909688E-01 -4.274011254E-01
 9.535750151E-01 -4.270673394E-01
 9.547594190E-01 -4.267335534E-01
 9.559441805E-01 -4.264236093E-01
 9.571293592E-01 -4.261136651E-01
 9.583149552E-01 -4.257798791E-01
 9.595009089E-01 -4.254580140E-01
 9.606871605E-01 -4.251480699E-01
 9.618738294E-01 -4.247308373E-01
 9.630608559E-01 -4.243970513E-01
 9.642482400E-01 -4.240394235E-01
 9.654359818E-01 -4.234910607E-01
 9.666240215E-01 -4.230023026E-01
 9.678124189E-01 -4.224897027E-01
 9.690011740E-01 -4.217863679E-01
 9.701902866E-01 -4.210711122E-01
 9.713796973E-01 -4.203320146E-01
 9.725694656E-01 -4.195333123E-01
 9.737595916E-01 -4.186869264E-01
 9.749500751E-01 -4.178405404E-01
 9.761409163E-01 -4.169583917E-01
 9.773320556E-01 -4.160166383E-01
 9.785236120E-01 -4.150987267E-01
 9.797154665E-01 -4.141927361E-01
 9.809077382E-01 -4.132032990E-01
 9.821003079E-01 -4.121900201E-01
 9.832932353E-01 -4.112005830E-01
 9.844865799E-01 -4.100800157E-01
 9.856802225E-01 -4.089356065E-01
 9.868742228E-01 -4.077911973E-01
 9.880685806E-01 -4.064560533E-01
 9.892632961E-01 -4.050136209E-01
 9.904583693E-01 -4.037023187E-01
 9.916538000E-01 -4.021406770E-01
 9.928495884E-01 -4.005432725E-01
 9.940457344E-01 -3.992200494E-01
 9.952422976E-01 -3.977180123E-01
 9.964392185E-01 -3.963471055E-01
 9.976365566E-01 -3.952742219E-01
 9.988342524E-01 -3.941298127E-01
 1.000032425E+00 -3.933787942E-01
 1.001231074E+00 -3.924489617E-01
 1.002430201E+00 -3.910303712E-01
 1.003630638E+00 -3.897905946E-01
 1.004832864E+00 -3.884792924E-01
 1.006037354E+00 -3.871560693E-01
 1.007244945E+00 -3.857851624E-01
 1.008455992E+00 -3.843784928E-01
 1.009671211E+00 -3.829479814E-01
 1.010891318E+00 -3.814817071E-01
 1.012116671E+00 -3.799915910E-01
 1.013347983E+00 -3.784776330E-01
 1.014585972E+00 -3.769279122E-01
 1.015830994E+00 -3.753543496E-01
 1.017084002E+00 -3.737569451E-01
 1.018345356E+00 -3.721237779E-01
 1.019615650E+00 -3.704667687E-01
 1.020895720E+00 -3.687739968E-01
 1.022186160E+00 -3.670573831E-01
 1.023487449E+00 -3.653169274E-01
 1.024800420E+00 -3.635407090E-01
 1.026125550E+00 -3.617287278E-01
 1.027463555E+00 -3.598929048E-01
 1.028815150E+00 -3.580213189E-01
 1.030180931E+00 -3.561139703E-01
 1.031561613E+00 -3.541708589E-01
 1.032957911E+00 -3.522039056E-01
 1.034370422E+00 -3.501892686E-01
 1.035799980E+00 -3.481388688E-01
 1.037247181E+00 -3.460527062E-01
 1.038712740E+00 -3.439307809E-01
 1.040197372E+00 -3.417730927E-01
 1.041701913E+00 -3.395677209E-01
 1.043226957E+00 -3.373146653E-01
 1.044773459E+00 -3.350377679E-01
 1.046342015E+00 -3.327012658E-01
 1.047933340E+00 -3.303290009E-01
 1.049548507E+00 -3.279090524E-01
 1.051187992E+00 -3.254533410E-01
 1.052852869E+00 -3.229380250E-01
 1.054543734E+00 -3.203750253E-01
 1.056261659E+00 -3.177762628E-01
 1.058007240E+00 -3.151178956E-01
 1.059781551E+00 -3.124118447E-01
 1.061585307E+00 -3.096581101E-01
 1.063419461E+00 -3.068447709E-01
 1.065285087E+00 -3.039837480E-01
 1.067182779E+00 -3.010631204E-01
 1.069113731E+00 -2.980948091E-01
 1.071078777E+00 -2.950788140E-01
 1.073078871E+00 -2.919912934E-01
 1.075115204E+00 -2.888560891E-01
 1.077188492E+00 -2.856732011E-01
 1.079299927E+00 -2.824187875E-01
 1.081450582E+00 -2.791166902E-01
 1.083641410E+00 -2.757430673E-01
 1.085873604E+00 -2.723217607E-01
 1.088148117E+00 -2.688408494E-01
 1.090466142E+00 -2.653003335E-01
 1.092828989E+00 -2.616882920E-01
 1.095237613E+00 -2.580285668E-01
 1.097693205E+00 -2.543211579E-01
 1.100197077E+00 -2.505422235E-01
 1.102750421E+00 -2.467036843E-01
 1.105354548E+00 -2.428174615E-01
 1.108010769E+00 -2.388835549E-01
 1.110720277E+00 -2.348781228E-01
 1.113484383E+00 -2.308369279E-01
 1.116304636E+00 -2.267242074E-01
 1.119182348E+00 -2.225757241E-01
 1.122118950E+00 -2.183795571E-01
 1.125115752E+00 -2.141357064E-01
 1.128174424E+00 -2.098441720E-01
 1.131296396E+00 -2.055168748E-01
 1.134483218E+00 -2.011538148E-01
 1.137736440E+00 -1.967549920E-01
 1.141057611E+00 -1.923204064E-01
 1.144448638E+00 -1.878619790E-01
 1.147910833E+00 -1.833677888E-01
 1.151446223E+00 -1.788497567E-01
 1.155056357E+00 -1.743198037E-01
 1.158743143E+00 -1.697779298E-01
 1.162508249E+00 -1.652122140E-01
 1.166353703E+00 -1.606464982E-01
 1.170281291E+00 -1.560807824E-01
 1.174292922E+00 -1.515269876E-01
 1.178390741E+00 -1.469731927E-01
 1.182576537E+00 -1.424432397E-01
 1.186852694E+00 -1.379371285E-01
 1.191220999E+00 -1.334548593E-01
 1.195683837E+00 -1.290202737E-01
 1.200243354E+00 -1.246214584E-01
 1.204901814E+00 -1.202822402E-01
 1.209661365E+00 -1.160026267E-01
 1.214524508E+00 -1.117945388E-01
 1.219493747E+00 -1.076579764E-01
 1.224571228E+00 -1.036048606E-01
 1.229759812E+00 -9.965903312E-02
 1.235061765E+00 -9.582049400E-02
 1.240479827E+00 -9.208924323E-02
 1.246016741E+00 -8.848912269E-02
 1.251675129E+00 -8.505589515E-02
 1.257457852E+00 -8.171803504E-02
 1.263367772E+00 -7.848746330E-02
 1.269407868E+00 -7.532841712E-02
 1.275580883E+00 -7.228858024E-02
 1.281890154E+00 -6.934411079E-02
 1.288338661E+00 -6.653077155E-02
 1.294929504E+00 -6.383664161E-02
 1.301666141E+00 -6.127364188E-02
 1.308551788E+00 -5.884177238E-02
 1.315589786E+00 -5.655295402E-02
 1.322783709E+00 -5.440718681E-02
 1.330137134E+00 -5.240447074E-02
 1.337653637E+00 -5.055672675E-02
 1.345336914E+00 -4.885203391E-02
 1.353190780E+00 -4.730231315E-02
 1.361219049E+00 -4.589563981E-02
 1.369425893E+00 -4.463202134E-02
 1.377815127E+00 -4.352337494E-02
 1.386391044E+00 -4.255777970E-02
 1.395157814E+00 -4.172331467E-02
 1.404119730E+00 -4.104382172E-02
 1.413281441E+00 -4.048353806E-02
 1.422647238E+00 -4.006630555E-02
 1.432221770E+00 -3.976828232E-02
 1.442009807E+00 -3.958946839E-02
 1.452016234E+00 -3.952986374E-02
 1.462246060E+00 -3.956562653E-02
 1.472704172E+00 -3.972059861E-02
 1.483395696E+00 -3.995901719E-02
 1.494326115E+00 -4.028088227E-02
 1.505500793E+00 -4.069811478E-02
 1.516925097E+00 -4.118687287E-02
 1.528604746E+00 -4.173523560E-02
 1.540545583E+00 -4.235512391E-02
 1.552753448E+00 -4.302269593E-02
 1.565234303E+00 -4.373795167E-02
 1.577994466E+00 -4.448897019E-02
 1.591040254E+00 -4.527575150E-02
 1.604377866E+00 -4.609829560E-02
 1.618014097E+00 -4.693276435E-02
 1.631955624E+00 -4.779107124E-02
 1.646209359E+00 -4.864937812E-02
 1.660782337E+00 -4.951960593E-02
 1.675681710E+00 -5.038983375E-02
 1.690914989E+00 -5.124814063E-02
 1.706489444E+00 -5.210644752E-02
 1.722413063E+00 -5.295283347E-02
 1.738693476E+00 -5.377537757E-02
 1.755338788E+00 -5.458600074E-02
 1.772357345E+00 -5.537278205E-02
 1.789757371E+00 -5.612380058E-02
 1.807547569E+00 -5.686289817E-02
 1.825736761E+00 -5.756623298E-02
 1.844333768E+00 -5.824572593E-02
 1.863348007E+00 -5.890137702E-02
 1.882788658E+00 -5.952126533E-02
 1.902665496E+00 -6.010539085E-02
 1.922988296E+00 -6.065375358E-02
 1.943766952E+00 -6.116635352E-02
 1.965011954E+00 -6.164319068E-02
 1.986733675E+00 -6.208426505E-02
 2.008942842E+00 -6.250149757E-02
 2.031650543E+00 -6.288296729E-02
 2.054867744E+00 -6.325251609E-02
 2.078606129E+00 -6.357438117E-02
 2.102877378E+00 -6.388432533E-02
 2.127693415E+00 -6.417042762E-02
 2.153066635E+00 -6.443268806E-02
 2.179009438E+00 -6.468302757E-02
 2.205534697E+00 -6.490952522E-02
 2.232655764E+00 -6.511218101E-02
 2.260385513E+00 -6.530291587E-02
 2.288738012E+00 -6.548172981E-02
 2.317727089E+00 -6.564862281E-02
 2.347367287E+00 -6.579167396E-02
 2.377673149E+00 -6.593472511E-02
 2.408659458E+00 -6.605393440E-02
 2.440341711E+00 -6.617314368E-02
 2.472735643E+00 -6.628043205E-02
 2.505856991E+00 -6.638772041E-02
 2.539722443E+00 -6.648308784E-02
 2.574348450E+00 -6.656653434E-02
 2.609752178E+00 -6.664998084E-02
 2.645951271E+00 -6.673342735E-02
 2.682963610E+00 -6.680495292E-02
 2.720807314E+00 -6.687647849E-02
 2.759500980E+00 -6.694800407E-02
 2.799063921E+00 -6.700760871E-02
 2.839515686E+00 -6.707913429E-02
 2.880876303E+00 -6.713873893E-02
 2.923166037E+00 -6.721026450E-02
 2.966406107E+00 -6.726986915E-02
 3.010617256E+00 -6.732947379E-02
 3.055821896E+00 -6.740099937E-02
 3.102042198E+00 -6.746060401E-02
 3.149301052E+00 -6.753212959E-02
 3.197621584E+00 -6.759173423E-02
 3.247027874E+00 -6.766325980E-02
 3.297544241E+00 -6.773478538E-02
 3.349195719E+00 -6.781823188E-02
 3.402007580E+00 -6.788975745E-02
 3.456006289E+00 -6.797320396E-02
 3.511218309E+00 -6.805665046E-02
 3.567670822E+00 -6.815201789E-02
 3.625391960E+00 -6.824738532E-02
 3.684410095E+00 -6.835467368E-02
 3.744754553E+00 -6.843812019E-02
 3.806454897E+00 -6.843812019E-02
 3.869541645E+00 -6.825930625E-02
 3.934046030E+00 -6.827122718E-02
 4.000000000E+00 -6.841427833E-02
