# CFL3D results for NASA wall-mounted hump, fine grid from CFDVAL2004, k-kL-MEAH015 model
# Cp has been shifted by -0.015 to better match experimental reference upstream
VARIABLES = "x","cp"
zone, t="CFL3D"
 -6.389999866E+00 1.411431562E-02
 -6.250000000E+00 9.870464914E-03
 -6.109999657E+00 6.353790406E-03
 -5.985021591E+00 6.091529969E-03
 -5.863381386E+00 4.768306855E-03
 -5.749371529E+00 3.957683686E-03
 -5.639721394E+00 3.170902608E-03
 -5.533670425E+00 2.598698018E-03
 -5.431936741E+00 2.014572499E-03
 -5.331652164E+00 1.525814296E-03
 -5.235229015E+00 1.037056209E-03
 -5.139138699E+00 5.721390480E-04
 -5.046373367E+00 1.310646912E-04
 -4.953608036E+00 -3.219306236E-04
 -4.863193035E+00 -7.272422081E-04
 -4.773013115E+00 -1.156395650E-03
 -4.684131622E+00 -1.549786306E-03
 -4.595736980E+00 -1.955097774E-03
 -4.507867813E+00 -2.336567501E-03
 -4.420436859E+00 -2.729958156E-03
 -4.332942963E+00 -3.111427883E-03
 -4.245337486E+00 -3.492897609E-03
 -4.157374859E+00 -3.910130356E-03
 -4.067806721E+00 -4.315441940E-03
 -3.978238821E+00 -4.649227951E-03
 -3.890879154E+00 -5.054539535E-03
 -3.803519726E+00 -5.400246475E-03
 -3.720161438E+00 -5.734032486E-03
 -3.637692690E+00 -6.103581283E-03
 -3.557667494E+00 -6.425446365E-03
 -3.479038954E+00 -6.771153305E-03
 -3.401783943E+00 -7.081097458E-03
 -3.326177359E+00 -7.402962539E-03
 -3.251201868E+00 -7.700985763E-03
 -3.177910805E+00 -8.010929450E-03
 -3.104765892E+00 -8.308952674E-03
 -3.033086061E+00 -8.595054969E-03
 -2.961406231E+00 -8.893078193E-03
 -2.890453815E+00 -9.167259559E-03
 -2.819574118E+00 -9.465282783E-03
 -2.748524189E+00 -9.739464149E-03
 -2.677410364E+00 -1.002556644E-02
 -2.605410337E+00 -1.031166874E-02
 -2.532671690E+00 -1.058585010E-02
 -2.458646059E+00 -1.089579426E-02
 -2.382368326E+00 -1.115805469E-02
 -2.304962635E+00 -1.151568256E-02
 -2.222481251E+00 -1.184946857E-02
 -2.140000105E+00 -1.194483601E-02
 -2.140000105E+00 -1.232630573E-02
 -2.057518721E+00 -1.244551502E-02
 -1.977603912E+00 -1.271969639E-02
 -1.900208592E+00 -1.301771961E-02
 -1.825283527E+00 -1.329190098E-02
 -1.752778292E+00 -1.355416141E-02
 -1.682641506E+00 -1.379257999E-02
 -1.614820719E+00 -1.401907764E-02
 -1.549262881E+00 -1.423365436E-02
 -1.485914111E+00 -1.442438923E-02
 -1.424720526E+00 -1.459128223E-02
 -1.365627646E+00 -1.473433338E-02
 -1.308581114E+00 -1.484162174E-02
 -1.253526568E+00 -1.492506824E-02
 -1.200409770E+00 -1.496083103E-02
 -1.149176955E+00 -1.496083103E-02
 -1.099774480E+00 -1.490122639E-02
 -1.052149415E+00 -1.478201710E-02
 -1.006249309E+00 -1.459128223E-02
 -9.620223641E-01 -1.431710087E-02
 -9.194175601E-01 -1.394755207E-02
 -8.783845305E-01 -1.347071491E-02
 -8.388738632E-01 -1.286274754E-02
 -8.008369803E-01 -1.212364994E-02
 -7.642263174E-01 -1.122958027E-02
 -7.289952040E-01 -1.016861759E-02
 -6.950978637E-01 -8.916920051E-03
 -6.624897122E-01 -7.462567184E-03
 -6.311270595E-01 -5.793637130E-03
 -6.009674072E-01 -3.898209194E-03
 -5.719691515E-01 -1.752442098E-03
 -5.440919399E-01 6.555864820E-04
 -5.172962546E-01 3.325874684E-03
 -4.915438890E-01 6.270343903E-03
 -4.667975307E-01 9.500916116E-03
 -4.430209994E-01 1.302951109E-02
 -4.201791883E-01 1.685612649E-02
 -3.982608020E-01 2.098076791E-02
 -3.772084117E-01 2.540343255E-02
 -3.569900393E-01 3.013604134E-02
 -3.375746906E-01 3.517859429E-02
 -3.189324141E-01 4.051917046E-02
 -3.010341823E-01 4.614584893E-02
 -2.838519514E-01 5.209439248E-02
 -2.673585415E-01 5.836480111E-02
 -2.515277267E-01 6.484978646E-02
 -2.363342047E-01 7.154934853E-02
 -2.217534482E-01 7.857077569E-02
 -2.077618688E-01 8.584254235E-02
 -1.943366230E-01 9.335272759E-02
 -1.814557314E-01 1.011013314E-01
 -1.690979749E-01 1.090525910E-01
 -1.572428644E-01 1.171826720E-01
 -1.458706856E-01 1.254915595E-01
 -1.349624395E-01 1.339554191E-01
 -1.244997904E-01 1.425504088E-01
 -1.144651100E-01 1.512407660E-01
 -1.048414037E-01 1.600384116E-01
 -9.561231732E-02 1.688956618E-01
 -8.676211536E-02 1.777409911E-01
 -7.827564329E-02 1.865863204E-01
 -7.013832033E-02 1.954316497E-01
 -6.233612821E-02 2.042173743E-01
 -5.485558137E-02 2.129077315E-01
 -4.768370464E-02 2.214550376E-01
 -4.080802947E-02 2.298473716E-01
 -3.421657160E-02 2.380012721E-01
 -2.789780311E-02 2.458571643E-01
 -2.184065431E-02 2.533912063E-01
 -1.603448391E-02 2.599596381E-01
 -1.046906784E-02 2.655505538E-01
 -5.134584382E-03 2.635120749E-01
 -1.229149075E-05 2.786158919E-01
 4.974642303E-03 2.901315093E-01
 1.019467879E-02 2.852200866E-01
 1.564024575E-02 2.890943885E-01
 2.129183710E-02 2.904295325E-01
 2.712904848E-02 2.906798720E-01
 3.313728049E-02 2.884029746E-01
 3.930605203E-02 2.835749984E-01
 4.563094303E-02 2.743005157E-01
 5.212222040E-02 2.596258521E-01
 5.879302695E-02 2.390026301E-01
 6.566623598E-02 2.091168761E-01
 7.278272510E-02 1.699327826E-01
 8.017735183E-02 1.210569739E-01
 8.789702505E-02 6.188147515E-02
 9.598570317E-02 -3.397530178E-03
 1.044884771E-01 -9.093291312E-02
 1.135072187E-01 -1.585484147E-01
 1.229392141E-01 -2.042174935E-01
 1.327703595E-01 -2.610684037E-01
 1.429779828E-01 -3.102183938E-01
 1.535298377E-01 -3.470063806E-01
 1.643694639E-01 -4.020691514E-01
 1.755429506E-01 -4.659414887E-01
 1.870299280E-01 -5.035281777E-01
 1.987894326E-01 -5.387187600E-01
 2.107968628E-01 -5.701304078E-01
 2.230172604E-01 -5.946279168E-01
 2.354170233E-01 -6.149531007E-01
 2.479586452E-01 -6.315351129E-01
 2.606069446E-01 -6.476402879E-01
 2.733281851E-01 -6.621957421E-01
 2.860880494E-01 -6.757498384E-01
 2.988533676E-01 -6.883979440E-01
 3.115904331E-01 -6.998062730E-01
 3.242665529E-01 -7.124782205E-01
 3.368522227E-01 -7.256508470E-01
 3.493182957E-01 -7.374048829E-01
 3.616363406E-01 -7.488489747E-01
 3.737800121E-01 -7.590652108E-01
 3.857236803E-01 -7.691860795E-01
 3.974449039E-01 -7.777572274E-01
 4.089214206E-01 -7.857084870E-01
 4.201346934E-01 -7.930517793E-01
 4.310670793E-01 -7.990837693E-01
 4.417039156E-01 -8.062244058E-01
 4.520329237E-01 -8.095861077E-01
 4.620426893E-01 -8.137941957E-01
 4.717254639E-01 -8.192897439E-01
 4.810750186E-01 -8.206129670E-01
 4.900867641E-01 -8.213520646E-01
 4.987581968E-01 -8.223891854E-01
 5.070886016E-01 -8.230329156E-01
 5.150789618E-01 -8.233786225E-01
 5.227316618E-01 -8.228779435E-01
 5.300505757E-01 -8.209586740E-01
 5.370407104E-01 -8.188605905E-01
 5.437080264E-01 -8.177757859E-01
 5.500593781E-01 -8.160114884E-01
 5.561026335E-01 -8.121133447E-01
 5.618463755E-01 -8.076191545E-01
 5.672996640E-01 -8.041024804E-01
 5.724714994E-01 -8.009911180E-01
 5.773716569E-01 -7.966757417E-01
 5.820100904E-01 -7.908940911E-01
 5.863970518E-01 -7.844806314E-01
 5.905427933E-01 -7.779479623E-01
 5.944576263E-01 -7.711530328E-01
 5.981516242E-01 -7.640243173E-01
 6.016348600E-01 -7.569432855E-01
 6.049172282E-01 -7.496715188E-01
 6.080085039E-01 -7.421494126E-01
 6.109180450E-01 -7.348180413E-01
 6.136551499E-01 -7.272840142E-01
 6.162286997E-01 -7.196903825E-01
 6.186472178E-01 -7.125259042E-01
 6.209189296E-01 -7.052064538E-01
 6.230518222E-01 -6.977558732E-01
 6.250534654E-01 -6.899834275E-01
 6.269313693E-01 -6.821871400E-01
 6.286924481E-01 -6.744981408E-01
 6.303434372E-01 -6.665111184E-01
 6.318908930E-01 -6.583214402E-01
 6.333410144E-01 -6.507039666E-01
 6.346994042E-01 -6.432295442E-01
 6.359717846E-01 -6.356955171E-01
 6.371633410E-01 -6.286979318E-01
 6.382789016E-01 -6.218910813E-01
 6.393232942E-01 -6.153226495E-01
 6.403008103E-01 -6.092548966E-01
 6.412155032E-01 -6.035924554E-01
 6.420713067E-01 -5.980849862E-01
 6.428719759E-01 -5.924463868E-01
 6.436207294E-01 -5.881429315E-01
 6.443206668E-01 -5.835176110E-01
 6.449753046E-01 -5.784392953E-01
 6.455870867E-01 -5.744577050E-01
 6.461588740E-01 -5.701661706E-01
 6.466932297E-01 -5.658984780E-01
 6.471925378E-01 -5.623460412E-01
 6.476591825E-01 -5.577564836E-01
 6.480951309E-01 -5.547166467E-01
 6.485020518E-01 -5.517364144E-01
 6.488827467E-01 -5.466700196E-01
 6.492381096E-01 -5.447149873E-01
 6.495695710E-01 -5.421043038E-01
 6.498798728E-01 -5.379081368E-01
 6.501697302E-01 -5.350828767E-01
 6.504399180E-01 -5.333185792E-01
 6.506921649E-01 -5.309582353E-01
 6.509281993E-01 -5.278587937E-01
 6.511489153E-01 -5.253673196E-01
 6.513549089E-01 -5.232573152E-01
 6.515467167E-01 -5.218864083E-01
 6.517257094E-01 -5.201221108E-01
 6.518933773E-01 -5.179405808E-01
 6.520501375E-01 -5.161405206E-01
 6.521965861E-01 -5.144835114E-01
 6.523334384E-01 -5.128980279E-01
 6.524612308E-01 -5.114436746E-01
 6.525802016E-01 -5.103588700E-01
 6.526908875E-01 -5.093575120E-01
 6.527944207E-01 -5.081296563E-01
 6.528913975E-01 -5.069137216E-01
 6.529821157E-01 -5.058289170E-01
 6.530668736E-01 -5.048394799E-01
 6.531460285E-01 -5.039215684E-01
 6.532200575E-01 -5.030632615E-01
 6.532891989E-01 -5.022526383E-01
 6.533537507E-01 -5.015135407E-01
 6.534141302E-01 -5.008102059E-01
 6.534705162E-01 -5.001545548E-01
 6.535232067E-01 -4.995346665E-01
 6.535723805E-01 -4.989624619E-01
 6.536183953E-01 -4.984140992E-01
 6.536613107E-01 -4.979134202E-01
 6.537014246E-01 -4.974604249E-01
 6.537386179E-01 -4.970551133E-01
 6.537732482E-01 -4.966617227E-01
 6.538055539E-01 -4.962802529E-01
 6.538358927E-01 -4.959107041E-01
 6.538643241E-01 -4.955769181E-01
 6.538908482E-01 -4.952550530E-01
 6.539156437E-01 -4.949570298E-01
 6.539387703E-01 -4.946828485E-01
 6.539603472E-01 -4.944325089E-01
 6.539803743E-01 -4.941940904E-01
 6.539990306E-01 -4.939675927E-01
 6.540163755E-01 -4.937649369E-01
 6.540324092E-01 -4.935742021E-01
 6.540473104E-01 -4.934073091E-01
 6.540610194E-01 -4.932404160E-01
 6.540737152E-01 -4.930973649E-01
 6.540855765E-01 -4.929662347E-01
 6.540966034E-01 -4.928351045E-01
 6.541070938E-01 -4.927278161E-01
 6.541169882E-01 -4.926205277E-01
 6.541265845E-01 -4.925370812E-01
 6.541359425E-01 -4.924536347E-01
 6.541454196E-01 -4.924774766E-01
 6.541569829E-01 -4.926920533E-01
 6.557583213E-01 -4.923344254E-01
 6.557893753E-01 -4.923582673E-01
 6.558225155E-01 -4.924059510E-01
 6.558576822E-01 -4.924774766E-01
 6.558949947E-01 -4.925490022E-01
 6.559345126E-01 -4.926443696E-01
 6.559762955E-01 -4.927635789E-01
 6.560202837E-01 -4.929066300E-01
 6.560665965E-01 -4.930616021E-01
 6.561151743E-01 -4.932523370E-01
 6.561659575E-01 -4.934669137E-01
 6.562190056E-01 -4.937291741E-01
 6.562741995E-01 -4.939914346E-01
 6.563314795E-01 -4.942060113E-01
 6.563907266E-01 -4.944444299E-01
 6.564518809E-01 -4.946470857E-01
 6.565146446E-01 -4.947901368E-01
 6.565790176E-01 -4.948378205E-01
 6.566446424E-01 -4.947782159E-01
 6.567114592E-01 -4.945755601E-01
 6.567791104E-01 -4.943371415E-01
 6.568474770E-01 -4.936814904E-01
 6.569163203E-01 -4.927993417E-01
 6.569854021E-01 -4.919410348E-01
 6.570543051E-01 -4.908085465E-01
 6.571229100E-01 -4.895091653E-01
 6.571909189E-01 -4.880309701E-01
 6.572580934E-01 -4.863858819E-01
 6.573242545E-01 -4.847884774E-01
 6.573891044E-01 -4.827738404E-01
 6.574525833E-01 -4.806638360E-01
 6.575144529E-01 -4.788160920E-01
 6.575744748E-01 -4.768133759E-01
 6.576325893E-01 -4.748583436E-01
 6.576886177E-01 -4.729390740E-01
 6.577425599E-01 -4.710794091E-01
 6.577942967E-01 -4.693031907E-01
 6.578437686E-01 -4.676104188E-01
 6.578909755E-01 -4.661203027E-01
 6.579358578E-01 -4.645109773E-01
 6.579785347E-01 -4.630447030E-01
 6.580190063E-01 -4.619122148E-01
 6.580572128E-01 -4.607558846E-01
 6.580932140E-01 -4.597306848E-01
 6.581271887E-01 -4.588008523E-01
 6.581590176E-01 -4.579663873E-01
 6.581889391E-01 -4.572272897E-01
 6.582169533E-01 -4.565597177E-01
 6.582431793E-01 -4.559755921E-01
 6.582676172E-01 -4.554629922E-01
 6.582904458E-01 -4.550099969E-01
 6.583116651E-01 -4.546166062E-01
 6.583314538E-01 -4.542708993E-01
 6.583498716E-01 -4.539847970E-01
 6.583669186E-01 -4.537344575E-01
 6.583827734E-01 -4.535079598E-01
 6.583974361E-01 -4.533291459E-01
 6.584110260E-01 -4.531741738E-01
 6.584236026E-01 -4.530311227E-01
 6.584352255E-01 -4.529119134E-01
 6.584460139E-01 -4.528046250E-01
 6.584559083E-01 -4.526854157E-01
 6.584650874E-01 -4.526138902E-01
 6.584735513E-01 -4.521728158E-01
 6.584813595E-01 -4.517436624E-01
 6.584813595E-01 -4.527330995E-01
 6.584861875E-01 -4.528284669E-01
 6.584924459E-01 -4.526496530E-01
 6.584992409E-01 -4.525900483E-01
 6.585064530E-01 -4.525185227E-01
 6.585142016E-01 -4.524827600E-01
 6.585225463E-01 -4.524350762E-01
 6.585313678E-01 -4.523873925E-01
 6.585406661E-01 -4.523397088E-01
 6.585502625E-01 -4.522801042E-01
 6.585601568E-01 -4.522204995E-01
 6.585703492E-01 -4.521608949E-01
 6.585808396E-01 -4.520893693E-01
 6.585915685E-01 -4.520178437E-01
 6.586025357E-01 -4.519463181E-01
 6.586138010E-01 -4.518628716E-01
 6.586253047E-01 -4.517794251E-01
 6.586370468E-01 -4.517078996E-01
 6.586490870E-01 -4.516125321E-01
 6.586613059E-01 -4.515290856E-01
 6.586738229E-01 -4.514456391E-01
 6.586866379E-01 -4.513502717E-01
 6.586998105E-01 -4.512549043E-01
 6.587132812E-01 -4.511476159E-01
 6.587271094E-01 -4.510522485E-01
 6.587412953E-01 -4.509449601E-01
 6.587558389E-01 -4.508376718E-01
 6.587707400E-01 -4.507184625E-01
 6.587859988E-01 -4.506111741E-01
 6.588016152E-01 -4.504919648E-01
 6.588176489E-01 -4.503727555E-01
 6.588340998E-01 -4.502416253E-01
 6.588509083E-01 -4.501104951E-01
 6.588681936E-01 -4.499793649E-01
 6.588857770E-01 -4.498482347E-01
 6.589038372E-01 -4.497051835E-01
 6.589223146E-01 -4.495621324E-01
 6.589413285E-01 -4.494190812E-01
 6.589608788E-01 -4.492641091E-01
 6.589809060E-01 -4.491091371E-01
 6.590014696E-01 -4.489541650E-01
 6.590225697E-01 -4.487872720E-01
 6.590442657E-01 -4.486203790E-01
 6.590664387E-01 -4.484415650E-01
 6.590892076E-01 -4.482627511E-01
 6.591125727E-01 -4.480839372E-01
 6.591365337E-01 -4.478932023E-01
 6.591610312E-01 -4.477143884E-01
 6.591860652E-01 -4.475117326E-01
 6.592116952E-01 -4.473209977E-01
 6.592379808E-01 -4.471183419E-01
 6.592651010E-01 -4.469037652E-01
 6.592929959E-01 -4.466891885E-01
 6.593215466E-01 -4.464626908E-01
 6.593509316E-01 -4.462361932E-01
 6.593810320E-01 -4.459977746E-01
 6.594119072E-01 -4.457593560E-01
 6.594435573E-01 -4.455209374E-01
 6.594759226E-01 -4.452705979E-01
 6.595090032E-01 -4.450202584E-01
 6.595430374E-01 -4.447579980E-01
 6.595780849E-01 -4.444838166E-01
 6.596140265E-01 -4.442096353E-01
 6.596509218E-01 -4.439235330E-01
 6.596887708E-01 -4.436374307E-01
 6.597275138E-01 -4.433394074E-01
 6.597671509E-01 -4.430413842E-01
 6.598076820E-01 -4.427314401E-01
 6.598493457E-01 -4.424214959E-01
 6.598922014E-01 -4.420877099E-01
 6.599362493E-01 -4.417539239E-01
 6.599814296E-01 -4.414201379E-01
 6.600276828E-01 -4.410625100E-01
 6.600750685E-01 -4.407048821E-01
 6.601235867E-01 -4.403472543E-01
 6.601734757E-01 -4.399777055E-01
 6.602247357E-01 -4.395962358E-01
 6.602773070E-01 -4.392028451E-01
 6.603311300E-01 -4.388094544E-01
 6.603862047E-01 -4.384041429E-01
 6.604427099E-01 -4.379869103E-01
 6.605007648E-01 -4.375696778E-01
 6.605603695E-01 -4.371405244E-01
 6.606214046E-01 -4.366994500E-01
 6.606838107E-01 -4.362464547E-01
 6.607478857E-01 -4.357934594E-01
 6.608137488E-01 -4.353285432E-01
 6.608813405E-01 -4.348636270E-01
 6.609504819E-01 -4.343748689E-01
 6.610214114E-01 -4.338861108E-01
 6.610942483E-01 -4.333973527E-01
 6.611689329E-01 -4.328847528E-01
 6.612453461E-01 -4.323602319E-01
 6.613236666E-01 -4.318476319E-01
 6.614041328E-01 -4.313231111E-01
 6.614865661E-01 -4.307747483E-01
 6.615709066E-01 -4.302383065E-01
 6.616575122E-01 -4.296899438E-01
 6.617463827E-01 -4.291296601E-01
 6.618373990E-01 -4.285574555E-01
 6.619306803E-01 -4.279852509E-01
 6.620264053E-01 -4.274130464E-01
 6.621243954E-01 -4.268169999E-01
 6.622247100E-01 -4.262447953E-01
 6.623277664E-01 -4.256487489E-01
 6.624332070E-01 -4.250407815E-01
 6.625413895E-01 -4.244447351E-01
 6.626522541E-01 -4.238367677E-01
 6.627657413E-01 -4.232288003E-01
 6.628822088E-01 -4.226089120E-01
 6.630014181E-01 -4.219890237E-01
 6.631236672E-01 -4.213810563E-01
 6.632488370E-01 -4.207492471E-01
 6.633769274E-01 -4.201293588E-01
 6.635082960E-01 -4.195094705E-01
 6.636428237E-01 -4.188776612E-01
 6.637807488E-01 -4.182577729E-01
 6.639220119E-01 -4.176378846E-01
 6.640666723E-01 -4.170179963E-01
 6.642146707E-01 -4.163981080E-01
 6.643663645E-01 -4.157782197E-01
 6.645216942E-01 -4.151702523E-01
 6.646807790E-01 -4.145622849E-01
 6.648434401E-01 -4.139543176E-01
 6.650101542E-01 -4.133582711E-01
 6.651806831E-01 -4.127503037E-01
 6.653554440E-01 -4.121780992E-01
 6.655341983E-01 -4.115820527E-01
 6.657170057E-01 -4.109979272E-01
 6.659042239E-01 -4.104495645E-01
 6.660957932E-01 -4.098773599E-01
 6.662917137E-01 -4.093289971E-01
 6.664922237E-01 -4.087806344E-01
 6.666973829E-01 -4.082561135E-01
 6.669072509E-01 -4.077315927E-01
 6.671218276E-01 -4.072189927E-01
 6.673413515E-01 -4.067183137E-01
 6.675658822E-01 -4.062295556E-01
 6.677955389E-01 -4.057407975E-01
 6.680304408E-01 -4.052878022E-01
 6.682705879E-01 -4.048228860E-01
 6.685160995E-01 -4.043818116E-01
 6.687672734E-01 -4.039645791E-01
 6.690239906E-01 -4.035354257E-01
 6.692865491E-01 -4.031420350E-01
 6.695550084E-01 -4.027486444E-01
 6.698293090E-01 -4.023552537E-01
 6.701097488E-01 -4.019976258E-01
 6.703964472E-01 -4.016519189E-01
 6.706894636E-01 -4.012942910E-01
 6.709889174E-01 -4.009724259E-01
 6.712951064E-01 -4.006624818E-01
 6.716080308E-01 -4.003644586E-01
 6.719278693E-01 -4.000664353E-01
 6.722545624E-01 -3.997803330E-01
 6.725885272E-01 -3.995299935E-01
 6.729298234E-01 -3.992796540E-01
 6.732783318E-01 -3.990412354E-01
 6.736344695E-01 -3.988028169E-01
 6.739981771E-01 -3.985882401E-01
 6.743698716E-01 -3.983855844E-01
 6.747494340E-01 -3.981829286E-01
 6.751370430E-01 -3.979921937E-01
 6.755329967E-01 -3.978253007E-01
 6.759373546E-01 -3.976464868E-01
 6.763500571E-01 -3.974676728E-01
 6.767717600E-01 -3.973246217E-01
 6.772023439E-01 -3.971696496E-01
 6.776418686E-01 -3.970146775E-01
 6.780905724E-01 -3.968716264E-01
 6.785488725E-01 -3.967285752E-01
 6.790167093E-01 -3.965974450E-01
 6.794943810E-01 -3.964663148E-01
 6.799819469E-01 -3.963232636E-01
 6.804797053E-01 -3.962040544E-01
 6.809878349E-01 -3.960729241E-01
 6.815064549E-01 -3.959537148E-01
 6.820361614E-01 -3.958345056E-01
 6.825767756E-01 -3.957152963E-01
 6.831288934E-01 -3.956080079E-01
 6.836924553E-01 -3.954887986E-01
 6.842678189E-01 -3.953815103E-01
 6.848554015E-01 -3.952742219E-01
 6.854555011E-01 -3.951788545E-01
 6.860681176E-01 -3.950596452E-01
 6.866939068E-01 -3.949761987E-01
 6.873332262E-01 -3.948808312E-01
 6.879863143E-01 -3.947973847E-01
 6.886534095E-01 -3.947020173E-01
 6.893348694E-01 -3.946185708E-01
 6.900309920E-01 -3.945470452E-01
 6.907420158E-01 -3.944635987E-01
 6.914681792E-01 -3.943801522E-01
 6.922100186E-01 -3.943086267E-01
 6.929676533E-01 -3.942371011E-01
 6.937415004E-01 -3.941655755E-01
 6.945319176E-01 -3.940940499E-01
 6.953398585E-01 -3.940344453E-01
 6.961656213E-01 -3.939629197E-01
 6.970101595E-01 -3.939152360E-01
 6.978740692E-01 -3.938675523E-01
 6.987581253E-01 -3.938198686E-01
 6.996626258E-01 -3.937841058E-01
 7.005882859E-01 -3.937483430E-01
 7.015347481E-01 -3.937125802E-01
 7.025028467E-01 -3.936887383E-01
 7.034921050E-01 -3.936529756E-01
 7.045027018E-01 -3.936172128E-01
 7.055348754E-01 -3.936052918E-01
 7.065886855E-01 -3.935695291E-01
 7.076642513E-01 -3.935456872E-01
 7.087618113E-01 -3.935218453E-01
 7.098819613E-01 -3.934980035E-01
 7.110259533E-01 -3.934860826E-01
 7.121943235E-01 -3.934741616E-01
 7.133876085E-01 -3.934622407E-01
 7.146064043E-01 -3.934503198E-01
 7.158527374E-01 -3.934622407E-01
 7.171269059E-01 -3.934622407E-01
 7.184295654E-01 -3.934741616E-01
 7.197620273E-01 -3.934980035E-01
 7.211251855E-01 -3.935218453E-01
 7.225194573E-01 -3.935456872E-01
 7.239450216E-01 -3.935814500E-01
 7.254024148E-01 -3.936172128E-01
 7.268916965E-01 -3.936529756E-01
 7.284134626E-01 -3.937006593E-01
 7.299682498E-01 -3.937602639E-01
 7.315562963E-01 -3.938198686E-01
 7.331776619E-01 -3.938675523E-01
 7.348334193E-01 -3.939390779E-01
 7.365253568E-01 -3.940344453E-01
 7.382532954E-01 -3.941059709E-01
 7.400180101E-01 -3.942013383E-01
 7.418211699E-01 -3.943205476E-01
 7.436626554E-01 -3.944278359E-01
 7.455432415E-01 -3.945589662E-01
 7.474635839E-01 -3.946900964E-01
 7.494239211E-01 -3.948450685E-01
 7.514251471E-01 -3.950119615E-01
 7.534673214E-01 -3.951788545E-01
 7.555509806E-01 -3.953695893E-01
 7.576768994E-01 -3.955841660E-01
 7.598446012E-01 -3.957987428E-01
 7.620552182E-01 -3.960490823E-01
 7.643088102E-01 -3.963232636E-01
 7.666051984E-01 -3.965974450E-01
 7.689446211E-01 -3.968954682E-01
 7.713272572E-01 -3.972411752E-01
 7.737536430E-01 -3.976226449E-01
 7.762231231E-01 -3.980160356E-01
 7.787353992E-01 -3.984332681E-01
 7.812901735E-01 -3.989101052E-01
 7.838870883E-01 -3.994107842E-01
 7.865254879E-01 -3.999591470E-01
 7.892045975E-01 -4.005551934E-01
 7.919235826E-01 -4.011631608E-01
 7.946816683E-01 -4.018188119E-01
 7.974784970E-01 -4.025459886E-01
 8.003132939E-01 -4.033089280E-01
 8.031852245E-01 -4.041314721E-01
 8.060935736E-01 -4.050016999E-01
 8.090370893E-01 -4.059434533E-01
 8.120148182E-01 -4.069448113E-01
 8.150251508E-01 -4.079342484E-01
 8.180672526E-01 -4.089952111E-01
 8.211403489E-01 -4.101396203E-01
 8.242433071E-01 -4.112959504E-01
 8.273749948E-01 -4.125476480E-01
 8.305344582E-01 -4.138112664E-01
 8.337201476E-01 -4.151464105E-01
 8.369311690E-01 -4.165292382E-01
 8.401658535E-01 -4.179359078E-01
 8.434231281E-01 -4.193544984E-01
 8.467014432E-01 -4.207611680E-01
 8.499999046E-01 -4.222036004E-01
 8.533171415E-01 -4.236221910E-01
 8.566522598E-01 -4.250884652E-01
 8.600037694E-01 -4.265070558E-01
 8.633707166E-01 -4.279494882E-01
 8.667517900E-01 -4.293442369E-01
 8.701456785E-01 -4.307151437E-01
 8.735511899E-01 -4.320622087E-01
 8.769668937E-01 -4.332781434E-01
 8.803916574E-01 -4.344583154E-01
 8.838241696E-01 -4.355311990E-01
 8.872632980E-01 -4.364610314E-01
 8.907079101E-01 -4.373074174E-01
 8.941569924E-01 -4.380703568E-01
 8.976092935E-01 -4.387140870E-01
 9.010636806E-01 -4.392743707E-01
 9.045190215E-01 -4.396439195E-01
 9.079738855E-01 -4.397869706E-01
 9.114274383E-01 -4.398227334E-01
 9.148784876E-01 -4.396916032E-01
 9.183261395E-01 -4.394770265E-01
 9.217692614E-01 -4.391909242E-01
 9.252066612E-01 -4.387140870E-01
 9.286372662E-01 -4.381895661E-01
 9.320599437E-01 -4.376173615E-01
 9.354733825E-01 -4.368901849E-01
 9.388764501E-01 -4.362464547E-01
 9.422678947E-01 -4.355431199E-01
 9.456464052E-01 -4.347444177E-01
 9.490106702E-01 -4.340053201E-01
 9.523594975E-01 -4.331350923E-01
 9.556915760E-01 -4.323125482E-01
 9.590058327E-01 -4.315615296E-01
 9.623009562E-01 -4.307747483E-01
 9.655758142E-01 -4.297257066E-01
 9.688293338E-01 -4.280686975E-01
 9.720609188E-01 -4.259706140E-01
 9.752697945E-01 -4.236937165E-01
 9.784551859E-01 -4.213691354E-01
 9.816162586E-01 -4.189730287E-01
 9.847521186E-01 -4.163027406E-01
 9.878619909E-01 -4.130840898E-01
 9.909452796E-01 -4.091144204E-01
 9.940017462E-01 -4.049659371E-01
 9.970310926E-01 -4.018664956E-01
 1.000032425E+00 -3.999353051E-01
 1.003033280E+00 -3.970862031E-01
 1.006104112E+00 -3.932953477E-01
 1.009247065E+00 -3.895998597E-01
 1.012464166E+00 -3.856540322E-01
 1.015756965E+00 -3.815055490E-01
 1.019127727E+00 -3.771186471E-01
 1.022578120E+00 -3.724933267E-01
 1.026110411E+00 -3.676415086E-01
 1.029726386E+00 -3.625631928E-01
 1.033428550E+00 -3.572583795E-01
 1.037218809E+00 -3.517389894E-01
 1.041099548E+00 -3.459931016E-01
 1.045073152E+00 -3.400207162E-01
 1.049142003E+00 -3.338456750E-01
 1.053308487E+00 -3.274560571E-01
 1.057575226E+00 -3.208518624E-01
 1.061944842E+00 -3.140450120E-01
 1.066419959E+00 -3.070474267E-01
 1.071003437E+00 -2.998591065E-01
 1.075698256E+00 -2.924919724E-01
 1.080507040E+00 -2.849341035E-01
 1.085433245E+00 -2.772212625E-01
 1.090479612E+00 -2.693534493E-01
 1.095649719E+00 -2.613425851E-01
 1.100946665E+00 -2.532005906E-01
 1.106373906E+00 -2.449513078E-01
 1.111935139E+00 -2.365947366E-01
 1.117633939E+00 -2.281547189E-01
 1.123474121E+00 -2.196431756E-01
 1.129459620E+00 -2.110958695E-01
 1.135594368E+00 -2.025128007E-01
 1.141882539E+00 -1.939297318E-01
 1.148328424E+00 -1.853705049E-01
 1.154936552E+00 -1.768470407E-01
 1.161711454E+00 -1.683951020E-01
 1.168657780E+00 -1.600385308E-01
 1.175780654E+00 -1.518011689E-01
 1.183084965E+00 -1.437068582E-01
 1.190576077E+00 -1.358032823E-01
 1.198259234E+00 -1.280904412E-01
 1.206140280E+00 -1.206279472E-01
 1.214224935E+00 -1.134277061E-01
 1.222519040E+00 -1.065135673E-01
 1.231029153E+00 -9.992129356E-02
 1.239761472E+00 -9.368664771E-02
 1.248722792E+00 -8.785731345E-02
 1.257920146E+00 -8.245713264E-02
 1.267360568E+00 -7.735497504E-02
 1.277051568E+00 -7.247931510E-02
 1.287000895E+00 -6.793744117E-02
 1.297216654E+00 -6.372935325E-02
 1.307707071E+00 -5.986697227E-02
 1.318480849E+00 -5.633837730E-02
 1.329547167E+00 -5.317933112E-02
 1.340915084E+00 -5.040175468E-02
 1.352594614E+00 -4.807717353E-02
 1.364595652E+00 -4.608637467E-02
 1.376928806E+00 -4.431015626E-02
 1.389605165E+00 -4.286772385E-02
 1.402636051E+00 -4.174715653E-02
 1.416033268E+00 -4.092461243E-02
 1.429809332E+00 -4.036432877E-02
 1.443977118E+00 -4.006630555E-02
 1.458550096E+00 -4.000670090E-02
 1.473542333E+00 -4.016167298E-02
 1.488968611E+00 -4.050737992E-02
 1.504844069E+00 -4.103190079E-02
 1.521184921E+00 -4.169947281E-02
 1.538007736E+00 -4.251009598E-02
 1.555330157E+00 -4.341608658E-02
 1.573170543E+00 -4.442936555E-02
 1.591547966E+00 -4.551417008E-02
 1.610482574E+00 -4.664666206E-02
 1.629995584E+00 -4.782683402E-02
 1.650108933E+00 -4.901892692E-02
 1.670845985E+00 -5.022294074E-02
 1.692230940E+00 -5.142695457E-02
 1.714289427E+00 -5.260712653E-02
 1.737048388E+00 -5.376345664E-02
 1.760536075E+00 -5.488402396E-02
 1.784782290E+00 -5.596882850E-02
 1.809818387E+00 -5.699402839E-02
 1.835677505E+00 -5.797154456E-02
 1.862394452E+00 -5.888945609E-02
 1.890006065E+00 -5.974776298E-02
 1.918551207E+00 -6.054646522E-02
 1.948071003E+00 -6.128556281E-02
 1.978608847E+00 -6.194121391E-02
 2.010210991E+00 -6.253726035E-02
 2.042926073E+00 -6.308562309E-02
 2.076805592E+00 -6.356246024E-02
 2.111905098E+00 -6.400353462E-02
 2.148282528E+00 -6.439692527E-02
 2.185999870E+00 -6.474263221E-02
 2.225123644E+00 -6.505257636E-02
 2.265723705E+00 -6.532675773E-02
 2.307875633E+00 -6.557709724E-02
 2.351659298E+00 -6.579167396E-02
 2.397160769E+00 -6.599432975E-02
 2.444471359E+00 -6.616122276E-02
 2.493689775E+00 -6.631619483E-02
 2.544921398E+00 -6.645924598E-02
 2.598279476E+00 -6.659037620E-02
 2.653885841E+00 -6.670958549E-02
 2.711871862E+00 -6.681687385E-02
 2.772378922E+00 -6.692416221E-02
 2.835560083E+00 -6.701952964E-02
 2.901580811E+00 -6.711489707E-02
 2.970619917E+00 -6.721026450E-02
 3.042872429E+00 -6.731755286E-02
 3.118549585E+00 -6.741292030E-02
 3.197881937E+00 -6.752020866E-02
 3.281120300E+00 -6.765133888E-02
 3.368539810E+00 -6.779439002E-02
 3.460441351E+00 -6.794936210E-02
 3.557155371E+00 -6.804472953E-02
 3.659045458E+00 -6.803280860E-02
 3.766512632E+00 -6.796128303E-02
 3.880000353E+00 -6.828314811E-02
 4.000000000E+00 -6.862885505E-02
