# CFL3D results for NASA wall-mounted hump, fine grid from CFDVAL2004, SA model
# Cp has been shifted by -0.015 to better match experimental reference upstream
VARIABLES = "x","cp"
zone, t="CFL3D"
 -6.389999866E+00 9.918148629E-03
 -6.250000000E+00 5.388195161E-03
 -6.109999657E+00 1.311237575E-03
 -5.985021591E+00 7.747957716E-04
 -5.863381386E+00 -4.411399132E-04
 -5.749371529E+00 -1.108711935E-03
 -5.639721394E+00 -1.835888601E-03
 -5.533670425E+00 -2.372330287E-03
 -5.431936741E+00 -2.932613948E-03
 -5.331652164E+00 -3.421372036E-03
 -5.235229015E+00 -3.910130356E-03
 -5.139138699E+00 -4.363125656E-03
 -5.046373367E+00 -4.804200027E-03
 -4.953608036E+00 -5.245274398E-03
 -4.863193035E+00 -5.650585983E-03
 -4.773013115E+00 -6.079739425E-03
 -4.684131622E+00 -6.461209152E-03
 -4.595736980E+00 -6.866520736E-03
 -4.507867813E+00 -7.247990463E-03
 -4.420436859E+00 -7.641381118E-03
 -4.332942963E+00 -8.022850379E-03
 -4.245337486E+00 -8.392399177E-03
 -4.157374859E+00 -8.809631690E-03
 -4.067806721E+00 -9.214943275E-03
 -3.978238821E+00 -9.548729286E-03
 -3.890879154E+00 -9.954040870E-03
 -3.803519726E+00 -1.029974781E-02
 -3.720161438E+00 -1.063353382E-02
 -3.637692690E+00 -1.100308262E-02
 -3.557667494E+00 -1.132494770E-02
 -3.479038954E+00 -1.167065464E-02
 -3.401783943E+00 -1.198059879E-02
 -3.326177359E+00 -1.230246387E-02
 -3.251201868E+00 -1.260048710E-02
 -3.177910805E+00 -1.291043125E-02
 -3.104765892E+00 -1.320845447E-02
 -3.033086061E+00 -1.349455677E-02
 -2.961406231E+00 -1.379257999E-02
 -2.890453815E+00 -1.406676136E-02
 -2.819574118E+00 -1.436478458E-02
 -2.748524189E+00 -1.463896595E-02
 -2.677410364E+00 -1.492506824E-02
 -2.605410337E+00 -1.521117054E-02
 -2.532671690E+00 -1.548535191E-02
 -2.458646059E+00 -1.579529606E-02
 -2.382368326E+00 -1.605755650E-02
 -2.304962635E+00 -1.641518436E-02
 -2.222481251E+00 -1.674897037E-02
 -2.140000105E+00 -1.684433781E-02
 -2.140000105E+00 -1.722580753E-02
 -2.057518721E+00 -1.735693775E-02
 -1.977603912E+00 -1.763111912E-02
 -1.900208592E+00 -1.792914234E-02
 -1.825283527E+00 -1.820332371E-02
 -1.752778292E+00 -1.846558414E-02
 -1.682641506E+00 -1.870400272E-02
 -1.614820719E+00 -1.893050037E-02
 -1.549262881E+00 -1.914507709E-02
 -1.485914111E+00 -1.933581196E-02
 -1.424720526E+00 -1.951462589E-02
 -1.365627646E+00 -1.965767704E-02
 -1.308581114E+00 -1.977688633E-02
 -1.253526568E+00 -1.986033283E-02
 -1.200409770E+00 -1.990801655E-02
 -1.149176955E+00 -1.990801655E-02
 -1.099774480E+00 -1.986033283E-02
 -1.052149415E+00 -1.975304447E-02
 -1.006249309E+00 -1.957423054E-02
 -9.620223641E-01 -1.931197010E-02
 -9.194175601E-01 -1.895434223E-02
 -8.783845305E-01 -1.850134693E-02
 -8.388738632E-01 -1.790530048E-02
 -8.008369803E-01 -1.719004475E-02
 -7.642263174E-01 -1.630789600E-02
 -7.289952040E-01 -1.527077518E-02
 -6.950978637E-01 -1.403099857E-02
 -6.624897122E-01 -1.260048710E-02
 -6.311270595E-01 -1.095539890E-02
 -6.009674072E-01 -9.083813056E-03
 -5.719691515E-01 -6.961888168E-03
 -5.440919399E-01 -4.577702377E-03
 -5.172962546E-01 -1.931256033E-03
 -4.915438890E-01 9.893724928E-04
 -4.667975307E-01 4.196102265E-03
 -4.430209994E-01 7.700855378E-03
 -4.201791883E-01 1.150363218E-02
 -3.982608020E-01 1.561635267E-02
 -3.772084117E-01 2.001517266E-02
 -3.569900393E-01 2.473586053E-02
 -3.375746906E-01 2.976649255E-02
 -3.189324141E-01 3.509514779E-02
 -3.010341823E-01 4.073374718E-02
 -2.838519514E-01 4.668229073E-02
 -2.673585415E-01 5.296462029E-02
 -2.515277267E-01 5.947344750E-02
 -2.363342047E-01 6.622069329E-02
 -2.217534482E-01 7.328980416E-02
 -2.077618688E-01 8.063309640E-02
 -1.943366230E-01 8.822672814E-02
 -1.814557314E-01 9.605877846E-02
 -1.690979749E-01 1.041292474E-01
 -1.572428644E-01 1.124143004E-01
 -1.458706856E-01 1.209020019E-01
 -1.349624395E-01 1.295685172E-01
 -1.244997904E-01 1.384138465E-01
 -1.144651100E-01 1.474022269E-01
 -1.048414037E-01 1.565336585E-01
 -9.561231732E-02 1.657962203E-01
 -8.676211536E-02 1.751064658E-01
 -7.827564329E-02 1.844882369E-01
 -7.013832033E-02 1.939296126E-01
 -6.233612821E-02 2.033948302E-01
 -5.485558137E-02 2.128719687E-01
 -4.768370464E-02 2.223133445E-01
 -4.080802947E-02 2.316831946E-01
 -3.421657160E-02 2.409457415E-01
 -2.789780311E-02 2.499937266E-01
 -2.184065431E-02 2.587913871E-01
 -1.603448391E-02 2.666711211E-01
 -1.046906784E-02 2.735375762E-01
 -5.134584382E-03 2.721905112E-01
 -1.229149075E-05 2.902864814E-01
 4.974642303E-03 3.034829497E-01
 1.019467879E-02 2.977370620E-01
 1.564024575E-02 3.018855453E-01
 2.129183710E-02 3.027915359E-01
 2.712904848E-02 3.021835685E-01
 3.313728049E-02 2.985476851E-01
 3.930605203E-02 2.919673324E-01
 4.563094303E-02 2.804874778E-01
 5.212222040E-02 2.632974982E-01
 5.879302695E-02 2.399324626E-01
 6.566623598E-02 2.071260810E-01
 7.278272510E-02 1.650690436E-01
 8.017735183E-02 1.134752631E-01
 8.789702505E-02 5.198710412E-02
 9.598570317E-02 -1.516348682E-02
 1.044884771E-01 -1.040459350E-01
 1.135072187E-01 -1.715899110E-01
 1.229392141E-01 -2.167583108E-01
 1.327703595E-01 -2.735019326E-01
 1.429779828E-01 -3.224254251E-01
 1.535298377E-01 -3.590942025E-01
 1.643694639E-01 -4.144669175E-01
 1.755429506E-01 -4.785299897E-01
 1.870299280E-01 -5.159497857E-01
 1.987894326E-01 -5.511046052E-01
 2.107968628E-01 -5.825520158E-01
 2.230172604E-01 -6.071210504E-01
 2.354170233E-01 -6.275892854E-01
 2.479586452E-01 -6.443739533E-01
 2.606069446E-01 -6.607533097E-01
 2.733281851E-01 -6.756067872E-01
 2.860880494E-01 -6.895065904E-01
 2.988533676E-01 -7.025242448E-01
 3.115904331E-01 -7.143378854E-01
 3.242665529E-01 -7.274628282E-01
 3.368522227E-01 -7.411242127E-01
 3.493182957E-01 -7.533908486E-01
 3.616363406E-01 -7.653833032E-01
 3.737800121E-01 -7.761955857E-01
 3.857236803E-01 -7.869601846E-01
 3.974449039E-01 -7.962108254E-01
 4.089214206E-01 -8.049011827E-01
 4.201346934E-01 -8.130312562E-01
 4.310670793E-01 -8.198977113E-01
 4.417039156E-01 -8.279443383E-01
 4.520329237E-01 -8.322239518E-01
 4.620426893E-01 -8.374333978E-01
 4.717254639E-01 -8.439899087E-01
 4.810750186E-01 -8.463860154E-01
 4.900867641E-01 -8.482576013E-01
 4.987581968E-01 -8.505344987E-01
 5.070886016E-01 -8.524537683E-01
 5.150789618E-01 -8.541226983E-01
 5.227316618E-01 -8.550167680E-01
 5.300505757E-01 -8.545399308E-01
 5.370407104E-01 -8.539677262E-01
 5.437080264E-01 -8.545160890E-01
 5.500593781E-01 -8.543730378E-01
 5.561026335E-01 -8.521199822E-01
 5.618463755E-01 -8.493900895E-01
 5.672996640E-01 -8.477807641E-01
 5.724714994E-01 -8.466363549E-01
 5.773716569E-01 -8.442402482E-01
 5.820100904E-01 -8.403659463E-01
 5.863970518E-01 -8.358955979E-01
 5.905427933E-01 -8.313656449E-01
 5.944576263E-01 -8.266211152E-01
 5.981516242E-01 -8.215666413E-01
 6.016348600E-01 -8.166313767E-01
 6.049172282E-01 -8.115292192E-01
 6.080085039E-01 -8.062005639E-01
 6.109180450E-01 -8.011341691E-01
 6.136551499E-01 -7.958889604E-01
 6.162286997E-01 -7.906437516E-01
 6.186472178E-01 -7.859111428E-01
 6.209189296E-01 -7.809997201E-01
 6.230518222E-01 -7.758975625E-01
 6.250534654E-01 -7.703781724E-01
 6.269313693E-01 -7.647514939E-01
 6.286924481E-01 -7.591724992E-01
 6.303434372E-01 -7.530928254E-01
 6.318908930E-01 -7.466912866E-01
 6.333410144E-01 -7.409215569E-01
 6.346994042E-01 -7.351995111E-01
 6.359717846E-01 -7.292986512E-01
 6.371633410E-01 -7.240057588E-01
 6.382789016E-01 -7.188439965E-01
 6.393232942E-01 -7.139325738E-01
 6.403008103E-01 -7.096410394E-01
 6.412155032E-01 -7.057667375E-01
 6.420713067E-01 -7.020116448E-01
 6.428719759E-01 -6.979704499E-01
 6.436207294E-01 -6.958127618E-01
 6.443206668E-01 -6.928682923E-01
 6.449753046E-01 -6.891012788E-01
 6.455870867E-01 -6.868482232E-01
 6.461588740E-01 -6.838560700E-01
 6.466932297E-01 -6.806851029E-01
 6.471925378E-01 -6.784797311E-01
 6.476591825E-01 -6.742597222E-01
 6.480951309E-01 -6.726384759E-01
 6.485020518E-01 -6.706715226E-01
 6.488827467E-01 -6.647706628E-01
 6.492381096E-01 -6.645918489E-01
 6.495695710E-01 -6.626845002E-01
 6.498798728E-01 -6.575346589E-01
 6.501697302E-01 -6.549835801E-01
 6.504399180E-01 -6.544232965E-01
 6.506921649E-01 -6.522536874E-01
 6.509281993E-01 -6.483436227E-01
 6.511489153E-01 -6.455660462E-01
 6.513549089E-01 -6.435275674E-01
 6.515467167E-01 -6.429792047E-01
 6.517257094E-01 -6.412506700E-01
 6.518933773E-01 -6.383896470E-01
 6.520501375E-01 -6.363154054E-01
 6.521965861E-01 -6.344080567E-01
 6.523334384E-01 -6.325007081E-01
 6.524612308E-01 -6.308079362E-01
 6.525802016E-01 -6.299496293E-01
 6.526908875E-01 -6.291509271E-01
 6.527944207E-01 -6.276369691E-01
 6.528913975E-01 -6.260276437E-01
 6.529821157E-01 -6.246328950E-01
 6.530668736E-01 -6.234050393E-01
 6.531460285E-01 -6.222606301E-01
 6.532200575E-01 -6.211996675E-01
 6.532891989E-01 -6.201983094E-01
 6.533537507E-01 -6.192684770E-01
 6.534141302E-01 -6.183863282E-01
 6.534705162E-01 -6.175757051E-01
 6.535232067E-01 -6.168008447E-01
 6.535723805E-01 -6.160736680E-01
 6.536183953E-01 -6.153941751E-01
 6.536613107E-01 -6.147623658E-01
 6.537014246E-01 -6.142140031E-01
 6.537386179E-01 -6.137490869E-01
 6.537732482E-01 -6.132841706E-01
 6.538055539E-01 -6.127834916E-01
 6.538358927E-01 -6.123066545E-01
 6.538643241E-01 -6.118536592E-01
 6.538908482E-01 -6.114245057E-01
 6.539156437E-01 -6.110311151E-01
 6.539387703E-01 -6.106734872E-01
 6.539603472E-01 -6.103277802E-01
 6.539803743E-01 -6.100178361E-01
 6.539990306E-01 -6.097198129E-01
 6.540163755E-01 -6.094337106E-01
 6.540324092E-01 -6.091833711E-01
 6.540473104E-01 -6.089449525E-01
 6.540610194E-01 -6.087184548E-01
 6.540737152E-01 -6.085157990E-01
 6.540855765E-01 -6.083250642E-01
 6.540966034E-01 -6.081343293E-01
 6.541070938E-01 -6.079435945E-01
 6.541169882E-01 -6.077886224E-01
 6.541265845E-01 -6.075859666E-01
 6.541359425E-01 -6.076217294E-01
 6.541454196E-01 -6.072879434E-01
 6.541569829E-01 -6.085038781E-01
 6.557583213E-01 -6.085634828E-01
 6.557893753E-01 -6.087780595E-01
 6.558225155E-01 -6.092072129E-01
 6.558576822E-01 -6.097317338E-01
 6.558949947E-01 -6.103039384E-01
 6.559345126E-01 -6.109476686E-01
 6.559762955E-01 -6.116629243E-01
 6.560202837E-01 -6.124139428E-01
 6.560665965E-01 -6.131649613E-01
 6.561151743E-01 -6.139040589E-01
 6.561659575E-01 -6.145120263E-01
 6.562190056E-01 -6.150961518E-01
 6.562741995E-01 -6.153584123E-01
 6.563314795E-01 -6.150127053E-01
 6.563907266E-01 -6.144405007E-01
 6.564518809E-01 -6.135225892E-01
 6.565146446E-01 -6.120205522E-01
 6.565790176E-01 -6.099701524E-01
 6.566446424E-01 -6.073475480E-01
 6.567114592E-01 -6.041169763E-01
 6.567791104E-01 -6.006718278E-01
 6.568474770E-01 -5.960226655E-01
 6.569163203E-01 -5.906463265E-01
 6.569854021E-01 -5.854845643E-01
 6.570543051E-01 -5.797625184E-01
 6.571229100E-01 -5.737186074E-01
 6.571909189E-01 -5.674720407E-01
 6.572580934E-01 -5.610466599E-01
 6.573242545E-01 -5.549193025E-01
 6.573891044E-01 -5.482674241E-01
 6.574525833E-01 -5.416274667E-01
 6.575144529E-01 -5.358219743E-01
 6.575744748E-01 -5.301118493E-01
 6.576325893E-01 -5.247831941E-01
 6.576886177E-01 -5.198479295E-01
 6.577425599E-01 -5.153775811E-01
 6.577942967E-01 -5.113840699E-01
 6.578437686E-01 -5.078793168E-01
 6.578909755E-01 -5.049467683E-01
 6.579358578E-01 -5.023122430E-01
 6.579785347E-01 -5.002022386E-01
 6.580190063E-01 -4.987478852E-01
 6.580572128E-01 -4.976153970E-01
 6.580932140E-01 -4.969001412E-01
 6.581271887E-01 -4.965425134E-01
 6.581590176E-01 -4.965186715E-01
 6.581889391E-01 -4.968047738E-01
 6.582169533E-01 -4.973650575E-01
 6.582431793E-01 -4.981637597E-01
 6.582676172E-01 -4.991770387E-01
 6.582904458E-01 -5.003691316E-01
 6.583116651E-01 -5.017281175E-01
 6.583314538E-01 -5.032301545E-01
 6.583498716E-01 -5.048394799E-01
 6.583669186E-01 -5.065560937E-01
 6.583827734E-01 -5.083442330E-01
 6.583974361E-01 -5.101919770E-01
 6.584110260E-01 -5.120874047E-01
 6.584236026E-01 -5.139947534E-01
 6.584352255E-01 -5.159140229E-01
 6.584460139E-01 -5.176663995E-01
 6.584559083E-01 -5.198121667E-01
 6.584650874E-01 -5.204558969E-01
 6.584735513E-01 -5.305410028E-01
 6.584813595E-01 -5.417585969E-01
 6.584813595E-01 -5.299211144E-01
 6.584861875E-01 -5.345702767E-01
 6.584924459E-01 -5.363703370E-01
 6.584992409E-01 -5.392671227E-01
 6.585064530E-01 -5.400419831E-01
 6.585142016E-01 -5.399942994E-01
 6.585225463E-01 -5.395770669E-01
 6.585313678E-01 -5.389929414E-01
 6.585406661E-01 -5.385041833E-01
 6.585502625E-01 -5.381346345E-01
 6.585601568E-01 -5.378127694E-01
 6.585703492E-01 -5.375505090E-01
 6.585808396E-01 -5.373120904E-01
 6.585915685E-01 -5.370975137E-01
 6.586025357E-01 -5.368948579E-01
 6.586138010E-01 -5.367041230E-01
 6.586253047E-01 -5.365253091E-01
 6.586370468E-01 -5.363464952E-01
 6.586490870E-01 -5.362034440E-01
 6.586613059E-01 -5.360484719E-01
 6.586738229E-01 -5.358934999E-01
 6.586866379E-01 -5.357385278E-01
 6.586998105E-01 -5.355954766E-01
 6.587132812E-01 -5.354405046E-01
 6.587271094E-01 -5.352855325E-01
 6.587412953E-01 -5.351305604E-01
 6.587558389E-01 -5.349755883E-01
 6.587707400E-01 -5.348206162E-01
 6.587859988E-01 -5.346656442E-01
 6.588016152E-01 -5.345106721E-01
 6.588176489E-01 -5.343557000E-01
 6.588340998E-01 -5.342007279E-01
 6.588509083E-01 -5.340338349E-01
 6.588681936E-01 -5.338788629E-01
 6.588857770E-01 -5.337238908E-01
 6.589038372E-01 -5.335569978E-01
 6.589223146E-01 -5.333781838E-01
 6.589413285E-01 -5.331993699E-01
 6.589608788E-01 -5.330086350E-01
 6.589809060E-01 -5.328059793E-01
 6.590014696E-01 -5.326033235E-01
 6.590225697E-01 -5.324006677E-01
 6.590442657E-01 -5.321860909E-01
 6.590664387E-01 -5.319595933E-01
 6.590892076E-01 -5.317330956E-01
 6.591125727E-01 -5.314946771E-01
 6.591365337E-01 -5.312562585E-01
 6.591610312E-01 -5.310178399E-01
 6.591860652E-01 -5.307794213E-01
 6.592116952E-01 -5.305171609E-01
 6.592379808E-01 -5.302549005E-01
 6.592651010E-01 -5.299568772E-01
 6.592929959E-01 -5.296588540E-01
 6.593215466E-01 -5.293369889E-01
 6.593509316E-01 -5.290151238E-01
 6.593810320E-01 -5.286813378E-01
 6.594119072E-01 -5.283356309E-01
 6.594435573E-01 -5.279780030E-01
 6.594759226E-01 -5.276322961E-01
 6.595090032E-01 -5.272627473E-01
 6.595430374E-01 -5.268812776E-01
 6.595780849E-01 -5.264640450E-01
 6.596140265E-01 -5.260348916E-01
 6.596509218E-01 -5.255818963E-01
 6.596887708E-01 -5.251289010E-01
 6.597275138E-01 -5.246639848E-01
 6.597671509E-01 -5.241990685E-01
 6.598076820E-01 -5.237222314E-01
 6.598493457E-01 -5.232096314E-01
 6.598922014E-01 -5.226612687E-01
 6.599362493E-01 -5.220771432E-01
 6.599814296E-01 -5.214930177E-01
 6.600276828E-01 -5.208850503E-01
 6.600750685E-01 -5.202651620E-01
 6.601235867E-01 -5.196214318E-01
 6.601734757E-01 -5.189180970E-01
 6.602247357E-01 -5.181551576E-01
 6.602773070E-01 -5.173683763E-01
 6.603311300E-01 -5.165696740E-01
 6.603862047E-01 -5.157352090E-01
 6.604427099E-01 -5.148411393E-01
 6.605007648E-01 -5.138636231E-01
 6.605603695E-01 -5.128265023E-01
 6.606214046E-01 -5.117774606E-01
 6.606838107E-01 -5.106926560E-01
 6.607478857E-01 -5.095363259E-01
 6.608137488E-01 -5.082846284E-01
 6.608813405E-01 -5.069733262E-01
 6.609504819E-01 -5.056501031E-01
 6.610214114E-01 -5.042553544E-01
 6.610942483E-01 -5.027771592E-01
 6.611689329E-01 -5.012393594E-01
 6.612453461E-01 -4.997134805E-01
 6.613236666E-01 -4.981279969E-01
 6.614041328E-01 -4.964352250E-01
 6.614865661E-01 -4.947186112E-01
 6.615709066E-01 -4.930139184E-01
 6.616575122E-01 -4.912257791E-01
 6.617463827E-01 -4.893780351E-01
 6.618373990E-01 -4.875183702E-01
 6.619306803E-01 -4.856229424E-01
 6.620264053E-01 -4.836559892E-01
 6.621243954E-01 -4.817247987E-01
 6.622247100E-01 -4.797578454E-01
 6.623277664E-01 -4.776955247E-01
 6.624332070E-01 -4.756570458E-01
 6.625413895E-01 -4.735589623E-01
 6.626522541E-01 -4.714489579E-01
 6.627657413E-01 -4.693270326E-01
 6.628822088E-01 -4.671216607E-01
 6.630014181E-01 -4.649401307E-01
 6.631236672E-01 -4.626870751E-01
 6.632488370E-01 -4.604697824E-01
 6.633769274E-01 -4.582405686E-01
 6.635082960E-01 -4.559279084E-01
 6.636428237E-01 -4.536271691E-01
 6.637807488E-01 -4.512668252E-01
 6.639220119E-01 -4.488826394E-01
 6.640666723E-01 -4.465342164E-01
 6.642146707E-01 -4.441857934E-01
 6.643663645E-01 -4.417896867E-01
 6.645216942E-01 -4.393339753E-01
 6.646807790E-01 -4.369378686E-01
 6.648434401E-01 -4.345775247E-01
 6.650101542E-01 -4.321337342E-01
 6.651806831E-01 -4.297495484E-01
 6.653554440E-01 -4.273057580E-01
 6.655341983E-01 -4.249454141E-01
 6.657170057E-01 -4.226089120E-01
 6.659042239E-01 -4.202128053E-01
 6.660957932E-01 -4.179001451E-01
 6.662917137E-01 -4.156113267E-01
 6.664922237E-01 -4.133344293E-01
 6.666973829E-01 -4.110932946E-01
 6.669072509E-01 -4.089117646E-01
 6.671218276E-01 -4.067659974E-01
 6.673413515E-01 -4.046679139E-01
 6.675658822E-01 -4.026175141E-01
 6.677955389E-01 -4.006267190E-01
 6.680304408E-01 -3.986836076E-01
 6.682705879E-01 -3.968120217E-01
 6.685160995E-01 -3.950000405E-01
 6.687672734E-01 -3.932476640E-01
 6.690239906E-01 -3.915548921E-01
 6.692865491E-01 -3.899336457E-01
 6.695550084E-01 -3.883720040E-01
 6.698293090E-01 -3.868938088E-01
 6.701097488E-01 -3.854752183E-01
 6.703964472E-01 -3.841043115E-01
 6.706894636E-01 -3.828168511E-01
 6.709889174E-01 -3.815889955E-01
 6.712951064E-01 -3.804088235E-01
 6.716080308E-01 -3.793001771E-01
 6.719278693E-01 -3.782511353E-01
 6.722545624E-01 -3.772497773E-01
 6.725885272E-01 -3.763080239E-01
 6.729298234E-01 -3.754020333E-01
 6.732783318E-01 -3.745675683E-01
 6.736344695E-01 -3.737569451E-01
 6.739981771E-01 -3.729940057E-01
 6.743698716E-01 -3.722906709E-01
 6.747494340E-01 -3.715992570E-01
 6.751370430E-01 -3.709555268E-01
 6.755329967E-01 -3.703714013E-01
 6.759373546E-01 -3.697753549E-01
 6.763500571E-01 -3.692150712E-01
 6.767717600E-01 -3.687263131E-01
 6.772023439E-01 -3.682375550E-01
 6.776418686E-01 -3.677607179E-01
 6.780905724E-01 -3.673196435E-01
 6.785488725E-01 -3.669024110E-01
 6.790167093E-01 -3.665090203E-01
 6.794943810E-01 -3.661394715E-01
 6.799819469E-01 -3.657699227E-01
 6.804797053E-01 -3.654361367E-01
 6.809878349E-01 -3.650904298E-01
 6.815064549E-01 -3.647804856E-01
 6.820361614E-01 -3.644824624E-01
 6.825767756E-01 -3.641963601E-01
 6.831288934E-01 -3.639340997E-01
 6.836924553E-01 -3.636479974E-01
 6.842678189E-01 -3.633976579E-01
 6.848554015E-01 -3.631473184E-01
 6.854555011E-01 -3.629208207E-01
 6.860681176E-01 -3.626704812E-01
 6.866939068E-01 -3.624559045E-01
 6.873332262E-01 -3.622413278E-01
 6.879863143E-01 -3.620386720E-01
 6.886534095E-01 -3.618360162E-01
 6.893348694E-01 -3.616452813E-01
 6.900309920E-01 -3.614545465E-01
 6.907420158E-01 -3.612638116E-01
 6.914681792E-01 -3.610849977E-01
 6.922100186E-01 -3.609181046E-01
 6.929676533E-01 -3.607512116E-01
 6.937415004E-01 -3.605723977E-01
 6.945319176E-01 -3.604174256E-01
 6.953398585E-01 -3.602862954E-01
 6.961656213E-01 -3.601432443E-01
 6.970101595E-01 -3.600240350E-01
 6.978740692E-01 -3.599286675E-01
 6.987581253E-01 -3.598452210E-01
 6.996626258E-01 -3.597856164E-01
 7.005882859E-01 -3.597260118E-01
 7.015347481E-01 -3.596902490E-01
 7.025028467E-01 -3.596783280E-01
 7.034921050E-01 -3.596544862E-01
 7.045027018E-01 -3.596425653E-01
 7.055348754E-01 -3.596664071E-01
 7.065886855E-01 -3.596783280E-01
 7.076642513E-01 -3.597140908E-01
 7.087618113E-01 -3.597498536E-01
 7.098819613E-01 -3.598094583E-01
 7.110259533E-01 -3.599167466E-01
 7.121943235E-01 -3.600240350E-01
 7.133876085E-01 -3.601313233E-01
 7.146064043E-01 -3.602743745E-01
 7.158527374E-01 -3.604889512E-01
 7.171269059E-01 -3.606796861E-01
 7.184295654E-01 -3.609061837E-01
 7.197620273E-01 -3.611684442E-01
 7.211251855E-01 -3.614783883E-01
 7.225194573E-01 -3.618121743E-01
 7.239450216E-01 -3.621698022E-01
 7.254024148E-01 -3.625512719E-01
 7.268916965E-01 -3.629446626E-01
 7.284134626E-01 -3.633857369E-01
 7.299682498E-01 -3.638625741E-01
 7.315562963E-01 -3.643632531E-01
 7.331776619E-01 -3.648281693E-01
 7.348334193E-01 -3.653646111E-01
 7.365253568E-01 -3.659725785E-01
 7.382532954E-01 -3.665328622E-01
 7.400180101E-01 -3.671527505E-01
 7.418211699E-01 -3.678322434E-01
 7.436626554E-01 -3.684878945E-01
 7.455432415E-01 -3.692150712E-01
 7.474635839E-01 -3.699303269E-01
 7.494239211E-01 -3.706813455E-01
 7.514251471E-01 -3.714800477E-01
 7.534673214E-01 -3.722310662E-01
 7.555509806E-01 -3.730774522E-01
 7.576768994E-01 -3.739238381E-01
 7.598446012E-01 -3.747106194E-01
 7.620552182E-01 -3.756285310E-01
 7.643088102E-01 -3.765226007E-01
 7.666051984E-01 -3.774047494E-01
 7.689446211E-01 -3.782749772E-01
 7.713272572E-01 -3.792167306E-01
 7.737536430E-01 -3.802180886E-01
 7.762231231E-01 -3.811717629E-01
 7.787353992E-01 -3.821492791E-01
 7.812901735E-01 -3.831625581E-01
 7.838870883E-01 -3.842115998E-01
 7.865254879E-01 -3.852606416E-01
 7.892045975E-01 -3.863335252E-01
 7.919235826E-01 -3.873468041E-01
 7.946816683E-01 -3.883362412E-01
 7.974784970E-01 -3.893852830E-01
 8.003132939E-01 -3.904104829E-01
 8.031852245E-01 -3.914833665E-01
 8.060935736E-01 -3.925204873E-01
 8.090370893E-01 -3.936052918E-01
 8.120148182E-01 -3.946900964E-01
 8.150251508E-01 -3.955960870E-01
 8.180672526E-01 -3.965259194E-01
 8.211403489E-01 -3.975034356E-01
 8.242433071E-01 -3.983617425E-01
 8.273749948E-01 -3.993034959E-01
 8.305344582E-01 -4.001379609E-01
 8.337201476E-01 -4.009843469E-01
 8.369311690E-01 -4.018068910E-01
 8.401658535E-01 -4.025459886E-01
 8.434231281E-01 -4.032016397E-01
 8.467014432E-01 -4.037380815E-01
 8.499999046E-01 -4.042268395E-01
 8.533171415E-01 -4.046083093E-01
 8.566522598E-01 -4.049659371E-01
 8.600037694E-01 -4.051805139E-01
 8.633707166E-01 -4.053831697E-01
 8.667517900E-01 -4.054666162E-01
 8.701456785E-01 -4.054785371E-01
 8.735511899E-01 -4.054070115E-01
 8.769668937E-01 -4.051328301E-01
 8.803916574E-01 -4.047871232E-01
 8.838241696E-01 -4.042983651E-01
 8.872632980E-01 -4.035950303E-01
 8.907079101E-01 -4.027963281E-01
 8.941569924E-01 -4.019022584E-01
 8.976092935E-01 -4.008889794E-01
 9.010636806E-01 -3.998041749E-01
 9.045190215E-01 -3.985286355E-01
 9.079738855E-01 -3.970265985E-01
 9.114274383E-01 -3.954053521E-01
 9.148784876E-01 -3.936410546E-01
 9.183261395E-01 -3.918171525E-01
 9.217692614E-01 -3.899694085E-01
 9.252066612E-01 -3.879666924E-01
 9.286372662E-01 -3.859282136E-01
 9.320599437E-01 -3.838897347E-01
 9.354733825E-01 -3.817320466E-01
 9.388764501E-01 -3.797054887E-01
 9.422678947E-01 -3.776550889E-01
 9.456464052E-01 -3.755570054E-01
 9.490106702E-01 -3.735542893E-01
 9.523594975E-01 -3.714800477E-01
 9.556915760E-01 -3.694654107E-01
 9.590058327E-01 -3.676176667E-01
 9.623009562E-01 -3.657937646E-01
 9.655758142E-01 -3.638029695E-01
 9.688293338E-01 -3.612757325E-01
 9.720609188E-01 -3.583431840E-01
 9.752697945E-01 -3.552675843E-01
 9.784551859E-01 -3.522039056E-01
 9.816162586E-01 -3.491521478E-01
 9.847521186E-01 -3.459573388E-01
 9.878619909E-01 -3.423095345E-01
 9.909452796E-01 -3.379703164E-01
 9.940017462E-01 -3.333926797E-01
 9.970310926E-01 -3.297687173E-01
 1.000032425E+00 -3.274083734E-01
 1.003033280E+00 -3.243566155E-01
 1.006104112E+00 -3.204465508E-01
 1.009247065E+00 -3.166199327E-01
 1.012464166E+00 -3.126383424E-01
 1.015756965E+00 -3.085137010E-01
 1.019127727E+00 -3.042102456E-01
 1.022578120E+00 -2.997398973E-01
 1.026110411E+00 -2.951026559E-01
 1.029726386E+00 -2.903104424E-01
 1.033428550E+00 -2.853751779E-01
 1.037218809E+00 -2.802849412E-01
 1.041099548E+00 -2.750516534E-01
 1.045073152E+00 -2.696753144E-01
 1.049142003E+00 -2.641559243E-01
 1.053308487E+00 -2.585173249E-01
 1.057575226E+00 -2.527475953E-01
 1.061944842E+00 -2.468586564E-01
 1.066419959E+00 -2.408385873E-01
 1.071003437E+00 -2.347231507E-01
 1.075698256E+00 -2.285004258E-01
 1.080507040E+00 -2.221823335E-01
 1.085433245E+00 -2.157807946E-01
 1.090479612E+00 -2.093077302E-01
 1.095649719E+00 -2.027631402E-01
 1.100946665E+00 -1.961589456E-01
 1.106373906E+00 -1.895309091E-01
 1.111935139E+00 -1.828671098E-01
 1.117633939E+00 -1.761794686E-01
 1.123474121E+00 -1.695037484E-01
 1.129459620E+00 -1.628399491E-01
 1.135594368E+00 -1.562119126E-01
 1.141882539E+00 -1.496315598E-01
 1.148328424E+00 -1.431227326E-01
 1.154936552E+00 -1.366973519E-01
 1.161711454E+00 -1.303673387E-01
 1.168657780E+00 -1.241565421E-01
 1.175780654E+00 -1.180887893E-01
 1.183084965E+00 -1.121760085E-01
 1.190576077E+00 -1.064420417E-01
 1.198259234E+00 -1.008868888E-01
 1.206140280E+00 -9.553439170E-02
 1.214224935E+00 -9.040839225E-02
 1.222519040E+00 -8.550889045E-02
 1.231029153E+00 -8.085972816E-02
 1.239761472E+00 -7.646090537E-02
 1.248722792E+00 -7.236010581E-02
 1.257920146E+00 -6.858117133E-02
 1.267360568E+00 -6.504065543E-02
 1.277051568E+00 -6.171471626E-02
 1.287000895E+00 -5.868680030E-02
 1.297216654E+00 -5.596882850E-02
 1.307707071E+00 -5.353695899E-02
 1.318480849E+00 -5.139119178E-02
 1.329547167E+00 -4.953152686E-02
 1.340915084E+00 -4.798180610E-02
 1.352594614E+00 -4.680163413E-02
 1.364595652E+00 -4.585987702E-02
 1.376928806E+00 -4.503733292E-02
 1.389605165E+00 -4.445320740E-02
 1.402636051E+00 -4.411942139E-02
 1.416033268E+00 -4.398829117E-02
 1.429809332E+00 -4.403597489E-02
 1.443977118E+00 -4.426247254E-02
 1.458550096E+00 -4.464394227E-02
 1.473542333E+00 -4.515654221E-02
 1.488968611E+00 -4.580027238E-02
 1.504844069E+00 -4.655129462E-02
 1.521184921E+00 -4.739768058E-02
 1.538007736E+00 -4.831559211E-02
 1.555330157E+00 -4.929310828E-02
 1.573170543E+00 -5.031830817E-02
 1.591547966E+00 -5.136734992E-02
 1.610482574E+00 -5.244023353E-02
 1.629995584E+00 -5.352503806E-02
 1.650108933E+00 -5.459792167E-02
 1.670845985E+00 -5.565888435E-02
 1.692230940E+00 -5.669600517E-02
 1.714289427E+00 -5.769736320E-02
 1.737048388E+00 -5.866295844E-02
 1.760536075E+00 -5.956894904E-02
 1.784782290E+00 -6.043917686E-02
 1.809818387E+00 -6.124980003E-02
 1.835677505E+00 -6.200081855E-02
 1.862394452E+00 -6.269223243E-02
 1.890006065E+00 -6.332404166E-02
 1.918551207E+00 -6.389624625E-02
 1.948071003E+00 -6.442076713E-02
 1.978608847E+00 -6.488568336E-02
 2.010210991E+00 -6.529099494E-02
 2.042926073E+00 -6.564862281E-02
 2.076805592E+00 -6.595856696E-02
 2.111905098E+00 -6.623274833E-02
 2.148282528E+00 -6.645924598E-02
 2.185999870E+00 -6.664998084E-02
 2.225123644E+00 -6.681687385E-02
 2.265723705E+00 -6.694800407E-02
 2.307875633E+00 -6.705529243E-02
 2.351659298E+00 -6.715065986E-02
 2.397160769E+00 -6.722218543E-02
 2.444471359E+00 -6.729371101E-02
 2.493689775E+00 -6.734139472E-02
 2.544921398E+00 -6.738907844E-02
 2.598279476E+00 -6.742484123E-02
 2.653885841E+00 -6.746060401E-02
 2.711871862E+00 -6.748444587E-02
 2.772378922E+00 -6.752020866E-02
 2.835560083E+00 -6.755597144E-02
 2.901580811E+00 -6.759173423E-02
 2.970619917E+00 -6.762749702E-02
 3.042872429E+00 -6.767518073E-02
 3.118549585E+00 -6.772286445E-02
 3.197881937E+00 -6.778246909E-02
 3.281120300E+00 -6.786591560E-02
 3.368539810E+00 -6.797320396E-02
 3.460441351E+00 -6.808049232E-02
 3.557155371E+00 -6.814009696E-02
 3.659045458E+00 -6.809241325E-02
 3.766512632E+00 -6.796128303E-02
 3.880000353E+00 -6.821162254E-02
 4.000000000E+00 -6.852156669E-02
