# CFL3D results for NASA wall-mounted hump, fine grid from CFDVAL2004, SA model
# Note: extraction at x/H=-2.14 was "nearby" for CFL3D because turb data was not available at zone interface
VARIABLES = "x/c","y/c","u'v'/(Uref^2)"
ZONE T="x/c=-2.14 approx"
 -2.017499924E+00 7.713619561E-05 -5.830979262E-06
 -2.017499924E+00 1.361542847E-03 -1.323368168E-03
 -2.017499924E+00 2.645949367E-03 -1.348907361E-03
 -2.017499924E+00 3.930355888E-03 -1.349825063E-03
 -2.017499924E+00 5.214762874E-03 -1.343932119E-03
 -2.017499924E+00 6.499169394E-03 -1.334652887E-03
 -2.017499924E+00 7.783575915E-03 -1.323186676E-03
 -2.017499924E+00 9.067982435E-03 -1.310067135E-03
 -2.017499924E+00 1.035238896E-02 -1.295523951E-03
 -2.017499924E+00 1.163679548E-02 -1.279740012E-03
 -2.017499924E+00 1.292120293E-02 -1.262788894E-03
 -2.017499924E+00 1.420560945E-02 -1.244766288E-03
 -2.017499924E+00 1.549001597E-02 -1.225714688E-03
 -2.017499924E+00 1.677442156E-02 -1.205669250E-03
 -2.017499924E+00 1.805882901E-02 -1.184681663E-03
 -2.017499924E+00 1.934323646E-02 -1.162771950E-03
 -2.017499924E+00 2.062764205E-02 -1.139932894E-03
 -2.017499924E+00 2.191204950E-02 -1.116263098E-03
 -2.017499924E+00 2.319645509E-02 -1.091748825E-03
 -2.017499924E+00 2.448086254E-02 -1.066380530E-03
 -2.017499924E+00 2.576526813E-02 -1.040258445E-03
 -2.017499924E+00 2.704967558E-02 -1.013395842E-03
 -2.017499924E+00 2.833408304E-02 -9.858112317E-04
 -2.017499924E+00 2.961848862E-02 -9.575288859E-04
 -2.017499924E+00 3.090289608E-02 -9.285787237E-04
 -2.017499924E+00 3.218730167E-02 -8.989968919E-04
 -2.017499924E+00 3.347170725E-02 -8.688255330E-04
 -2.017499924E+00 3.475611657E-02 -8.381121443E-04
 -2.017499924E+00 3.604052216E-02 -8.069090545E-04
 -2.017499924E+00 3.732492775E-02 -7.752708625E-04
 -2.017499924E+00 3.860933334E-02 -7.432519924E-04
 -2.017499924E+00 3.989374265E-02 -7.108504069E-04
 -2.017499924E+00 4.117814824E-02 -6.781193078E-04
 -2.017499924E+00 4.246255383E-02 -6.451918744E-04
 -2.017499924E+00 4.374696314E-02 -6.121099577E-04
 -2.017499924E+00 4.503136873E-02 -5.788814160E-04
 -2.017499924E+00 4.631577432E-02 -5.456487415E-04
 -2.017499924E+00 4.760017991E-02 -5.124294548E-04
 -2.017499924E+00 4.888458923E-02 -4.793731496E-04
 -2.017499924E+00 5.016899481E-02 -4.465215025E-04
 -2.017499924E+00 5.145340040E-02 -4.138819932E-04
 -2.017499924E+00 5.273780972E-02 -3.818186524E-04
 -2.017499924E+00 5.402221531E-02 -3.499583108E-04
 -2.017499924E+00 5.530662090E-02 -3.190879361E-04
 -2.017499924E+00 5.659102648E-02 -2.885849972E-04
 -2.017499924E+00 5.787543580E-02 -2.592111414E-04
 -2.017499924E+00 5.915984139E-02 -2.305326489E-04
 -2.017499924E+00 6.044424698E-02 -2.031811455E-04
 -2.017499924E+00 6.172865629E-02 -1.767834474E-04
 -2.017499924E+00 6.301306188E-02 -1.520838123E-04
 -2.017499924E+00 6.429746747E-02 -1.283654856E-04
 -2.017499924E+00 6.558187306E-02 -1.070550279E-04
 -2.017499924E+00 6.686627865E-02 -8.629106742E-05
 -2.017499924E+00 6.815068424E-02 -6.919778389E-05
 -2.017499924E+00 6.943509728E-02 -5.210440577E-05
 -2.017499924E+00 7.071950287E-02 -3.943742558E-05
 -2.017499924E+00 7.200390846E-02 -2.739734737E-05
 -2.017499924E+00 7.328831404E-02 -1.825117579E-05
 -2.017499924E+00 7.457271963E-02 -1.172840894E-05
 -2.017499924E+00 7.585712522E-02 -5.524672360E-06
 -2.017499924E+00 7.714153081E-02 -3.494979183E-06
 -2.017499924E+00 7.842594385E-02 -1.465274522E-06
 -2.017499924E+00 7.971034944E-02 -3.824266628E-07
 -2.017499924E+00 8.099475503E-02 -2.069153169E-07
 -2.017499924E+00 8.227916062E-02 -3.140395677E-08
 -2.017499924E+00 8.356356621E-02 -1.877113798E-09
 -2.017499924E+00 8.484797180E-02 -9.373593013E-10
 -2.017499924E+00 8.613237739E-02 -3.028602716E-11
 -2.017499924E+00 8.741679043E-02 -1.611163980E-10
 -2.017499924E+00 8.870119601E-02 -2.919459952E-10
 -2.017499924E+00 8.998560160E-02 -4.025472733E-10
 -2.017499924E+00 9.127000719E-02 -3.953393168E-10
 -2.017499924E+00 9.255441278E-02 -3.881313604E-10
 -2.017499924E+00 9.383881837E-02 -3.816308380E-10
 -2.017499924E+00 9.512322396E-02 -3.801662873E-10
 -2.017499924E+00 9.640763700E-02 -3.787017089E-10
 -2.017499924E+00 9.769204259E-02 -3.772371582E-10
 -2.017499924E+00 9.897644818E-02 -3.755377953E-10
 -2.017499924E+00 1.002608538E-01 -3.738293564E-10
 -2.017499924E+00 1.015452594E-01 -3.721209174E-10
 -2.017499924E+00 1.028296649E-01 -3.700231788E-10
 -2.017499924E+00 1.041140705E-01 -3.677081417E-10
 -2.017499924E+00 1.053984836E-01 -3.653930769E-10
 -2.017499924E+00 1.066828892E-01 -3.630791778E-10
 -2.017499924E+00 1.079672948E-01 -3.607649179E-10
 -2.017499924E+00 1.092517003E-01 -3.584506858E-10
 -2.017499924E+00 1.105361059E-01 -3.561364259E-10
 -2.017499924E+00 1.118205115E-01 -3.539008808E-10
 -2.017499924E+00 1.131049171E-01 -3.517143243E-10
 -2.017499924E+00 1.143893301E-01 -3.495277678E-10
 -2.017499924E+00 1.156737357E-01 -3.473412113E-10
 -2.017499924E+00 1.169581413E-01 -3.450345565E-10
 -2.017499924E+00 1.182425469E-01 -3.427054474E-10
 -2.017499924E+00 1.195269525E-01 -3.403763105E-10
 -2.017499924E+00 1.208113581E-01 -3.380471736E-10
 -2.017499924E+00 1.220957637E-01 -3.356086242E-10
 -2.017499924E+00 1.233801767E-01 -3.331609433E-10
 -2.017499924E+00 1.246645823E-01 -3.307132901E-10
 -2.017499924E+00 1.259489805E-01 -3.282656369E-10
 -2.017499924E+00 1.272333860E-01 -3.258217585E-10
 -2.017499924E+00 1.285178065E-01 -3.233762702E-10
 -2.017499924E+00 1.298022121E-01 -3.209308375E-10
 -2.017499924E+00 1.310866177E-01 -3.184853770E-10
 -2.017499924E+00 1.323710233E-01 -3.160482154E-10
 -2.017499924E+00 1.336554289E-01 -3.136135796E-10
 -2.017499924E+00 1.349398345E-01 -3.111789437E-10
 -2.017499924E+00 1.362242401E-01 -3.087443357E-10
 -2.017499924E+00 1.375086457E-01 -3.063117260E-10
 -2.017499924E+00 1.387930512E-01 -3.038787000E-10
 -2.017499924E+00 1.400774568E-01 -3.014456462E-10
 -2.017499924E+00 1.413618624E-01 -2.990126202E-10
 -2.017499924E+00 1.426462680E-01 -2.965795942E-10
 -2.017499924E+00 1.439306736E-01 -2.941567545E-10
 -2.017499924E+00 1.452150792E-01 -2.917404374E-10
 -2.017499924E+00 1.464994997E-01 -2.893240925E-10
 -2.017499924E+00 1.477839053E-01 -2.869078031E-10
 -2.017499924E+00 1.490683109E-01 -2.844914859E-10
 -2.017499924E+00 1.503527164E-01 -2.821219647E-10
 -2.017499924E+00 1.516371220E-01 -2.797733989E-10
 -2.017499924E+00 1.529215276E-01 -2.774248331E-10
 -2.017499924E+00 1.542059332E-01 -2.750762396E-10
 -2.017499924E+00 1.554903388E-01 -2.727276738E-10
 -2.017499924E+00 1.567747444E-01 -2.704272917E-10
 -2.017499924E+00 1.580591500E-01 -2.681542766E-10
 -2.017499924E+00 1.593435556E-01 -2.658812892E-10
 -2.017499924E+00 1.606279612E-01 -2.636083019E-10
 -2.017499924E+00 1.619123667E-01 -2.613352867E-10
 -2.017499924E+00 1.631967723E-01 -2.590895276E-10
 -2.017499924E+00 1.644811779E-01 -2.568905366E-10
 -2.017499924E+00 1.657655984E-01 -2.546915456E-10
 -2.017499924E+00 1.670500040E-01 -2.524925546E-10
 -2.017499924E+00 1.683344096E-01 -2.502935914E-10
 -2.017499924E+00 1.696188152E-01 -2.480946004E-10
 -2.017499924E+00 1.709032208E-01 -2.459633330E-10
 -2.017499924E+00 1.721876264E-01 -2.438424185E-10
 -2.017499924E+00 1.734720320E-01 -2.417215039E-10
 -2.017499924E+00 1.747564375E-01 -2.396006171E-10
 -2.017499924E+00 1.760408431E-01 -2.374797026E-10
 -2.017499924E+00 1.773252487E-01 -2.353702233E-10
 -2.017499924E+00 1.786096543E-01 -2.333393756E-10
 -2.017499924E+00 1.798940599E-01 -2.313085418E-10
 -2.017499924E+00 1.811784655E-01 -2.292777079E-10
 -2.017499924E+00 1.824628711E-01 -2.272468741E-10
 -2.017499924E+00 1.837472916E-01 -2.252160125E-10
 -2.017499924E+00 1.850316972E-01 -2.231981683E-10
 -2.017499924E+00 1.863161027E-01 -2.212602046E-10
 -2.017499924E+00 1.876005083E-01 -2.193222548E-10
 -2.017499924E+00 1.888849139E-01 -2.173842911E-10
 -2.017499924E+00 1.901693195E-01 -2.154463413E-10
 -2.017499924E+00 1.914537251E-01 -2.135083776E-10
 -2.017499924E+00 1.927381307E-01 -2.115704278E-10
 -2.017499924E+00 1.940225363E-01 -2.097194363E-10
 -2.017499924E+00 1.953069419E-01 -2.078789085E-10
 -2.017499924E+00 1.965913475E-01 -2.060383808E-10
 -2.017499924E+00 1.978757530E-01 -2.041978531E-10
 -2.017499924E+00 1.991601586E-01 -2.023573392E-10
 -2.017499924E+00 2.004445642E-01 -2.005168115E-10
 -2.017499924E+00 2.017289847E-01 -1.987129628E-10
 -2.017499924E+00 2.030133903E-01 -1.969703289E-10
 -2.017499924E+00 2.042977959E-01 -1.952276812E-10
 -2.017499924E+00 2.055822015E-01 -1.934850336E-10
 -2.017499924E+00 2.068666071E-01 -1.917423997E-10
 -2.017499924E+00 2.081510127E-01 -1.899997520E-10
 -2.017499924E+00 2.094354182E-01 -1.882571043E-10
 -2.017499924E+00 2.107198238E-01 -1.865700511E-10
 -2.017499924E+00 2.120042294E-01 -1.849241316E-10
 -2.017499924E+00 2.132886350E-01 -1.832781982E-10
 -2.017499924E+00 2.145730406E-01 -1.816322787E-10
 -2.017499924E+00 2.158574462E-01 -1.799863453E-10
 -2.017499924E+00 2.171418518E-01 -1.783404119E-10
 -2.017499924E+00 2.184262574E-01 -1.766944924E-10
 -2.017499924E+00 2.197106779E-01 -1.750949802E-10
 -2.017499924E+00 2.209950835E-01 -1.735459415E-10
 -2.017499924E+00 2.222794890E-01 -1.719969028E-10
 -2.017499924E+00 2.235638946E-01 -1.704478642E-10
 -2.017499924E+00 2.248483002E-01 -1.688988255E-10
 -2.017499924E+00 2.261327058E-01 -1.673497868E-10
 -2.017499924E+00 2.274171114E-01 -1.658007481E-10
 -2.017499924E+00 2.287015170E-01 -1.642592312E-10
 -2.017499924E+00 2.299859226E-01 -1.628099738E-10
 -2.017499924E+00 2.312703282E-01 -1.613607026E-10
 -2.017499924E+00 2.325547338E-01 -1.599114452E-10
 -2.017499924E+00 2.338391393E-01 -1.584621739E-10
 -2.017499924E+00 2.351235449E-01 -1.570129166E-10
 -2.017499924E+00 2.364079505E-01 -1.555636453E-10
 -2.017499924E+00 2.376923561E-01 -1.541143740E-10
 -2.017499924E+00 2.389767766E-01 -1.526994503E-10
 -2.017499924E+00 2.402611822E-01 -1.513480868E-10
 -2.017499924E+00 2.415455878E-01 -1.499967234E-10
 -2.017499924E+00 2.428299934E-01 -1.486453599E-10
 -2.017499924E+00 2.441143990E-01 -1.472939964E-10
 -2.017499924E+00 2.453988045E-01 -1.459426330E-10
 -2.017499924E+00 2.466832101E-01 -1.445912695E-10
 -2.017499924E+00 2.479676157E-01 -1.432399060E-10
 -2.017499924E+00 2.492520213E-01 -1.419156598E-10
 -2.017499924E+00 2.505364418E-01 -1.406573330E-10
 -2.017499924E+00 2.518208325E-01 -1.393990201E-10
 -2.017499924E+00 2.531052530E-01 -1.381406933E-10
 -2.017499924E+00 2.543896437E-01 -1.368823804E-10
 -2.017499924E+00 2.556740642E-01 -1.356240537E-10
 -2.017499924E+00 2.569584548E-01 -1.343657546E-10
 -2.017499924E+00 2.582428753E-01 -1.331074140E-10
 -2.017499924E+00 2.595272660E-01 -1.318491150E-10
 -2.017499924E+00 2.608116865E-01 -1.306711267E-10
 -2.017499924E+00 2.620960772E-01 -1.295039492E-10
 -2.017499924E+00 2.633804977E-01 -1.283367440E-10
 -2.017499924E+00 2.646648884E-01 -1.271695665E-10
 -2.017499924E+00 2.659493089E-01 -1.260023613E-10
 -2.017499924E+00 2.672337294E-01 -1.248351561E-10
 -2.017499924E+00 2.685181201E-01 -1.236679648E-10
 -2.017499924E+00 2.698025405E-01 -1.225007595E-10
 -2.017499924E+00 2.710869312E-01 -1.213433243E-10
 -2.017499924E+00 2.723713517E-01 -1.202673516E-10
 -2.017499924E+00 2.736557424E-01 -1.191914067E-10
 -2.017499924E+00 2.749401629E-01 -1.181154341E-10
 -2.017499924E+00 2.762245536E-01 -1.170394753E-10
 -2.017499924E+00 2.775089741E-01 -1.159635027E-10
 -2.017499924E+00 2.787933648E-01 -1.148875578E-10
 -2.017499924E+00 2.800777853E-01 -1.138115782E-10
 -2.017499924E+00 2.813621759E-01 -1.127356264E-10
 -2.017499924E+00 2.826465964E-01 -1.116596537E-10
 -2.017499924E+00 2.839310169E-01 -1.106675515E-10
 -2.017499924E+00 2.852154076E-01 -1.096797653E-10
 -2.017499924E+00 2.864998281E-01 -1.086919513E-10
 -2.017499924E+00 2.877842188E-01 -1.077041650E-10
 -2.017499924E+00 2.890686393E-01 -1.067163510E-10
 -2.017499924E+00 2.903530300E-01 -1.057285648E-10
 -2.017499924E+00 2.916374505E-01 -1.047407508E-10
 -2.017499924E+00 2.929218411E-01 -1.037529646E-10
 -2.017499924E+00 2.942062616E-01 -1.027651506E-10
 -2.017499924E+00 2.954906523E-01 -1.018103726E-10
 -2.017499924E+00 2.967750728E-01 -1.009053952E-10
 -2.017499924E+00 2.980594635E-01 -1.000004315E-10
 -2.017499924E+00 2.993438840E-01 -9.909545406E-11
 -2.017499924E+00 3.006282747E-01 -9.819049046E-11
 -2.017499924E+00 3.019126952E-01 -9.728551298E-11
 -2.017499924E+00 3.031971157E-01 -9.638052856E-11
 -2.017499924E+00 3.044815063E-01 -9.547557189E-11
 -2.017499924E+00 3.057659268E-01 -9.457058747E-11
 -2.017499924E+00 3.070503175E-01 -9.366563081E-11
 -2.017499924E+00 3.083347380E-01 -9.279493146E-11
 -2.017499924E+00 3.096191287E-01 -9.196956391E-11
 -2.017499924E+00 3.109035492E-01 -9.114418248E-11
 -2.017499924E+00 3.121879399E-01 -9.031881493E-11
 -2.017499924E+00 3.134723604E-01 -8.949342656E-11
 -2.017499924E+00 3.147567511E-01 -8.866805901E-11
 -2.017499924E+00 3.160411716E-01 -8.784267064E-11
 -2.017499924E+00 3.173255622E-01 -8.701730309E-11
 -2.017499924E+00 3.186099827E-01 -8.619191472E-11
 -2.017499924E+00 3.198943734E-01 -8.536655410E-11
 -2.017499924E+00 3.211787939E-01 -8.454340700E-11
 -2.017499924E+00 3.224632144E-01 -8.379553301E-11
 -2.017499924E+00 3.237476051E-01 -8.304759658E-11
 -2.017499924E+00 3.250320256E-01 -8.229963239E-11
 -2.017499924E+00 3.263164163E-01 -8.155169595E-11
 -2.017499924E+00 3.276008368E-01 -8.080373870E-11
 -2.017499924E+00 3.288852274E-01 -8.005579533E-11
 -2.017499924E+00 3.301696479E-01 -7.930783807E-11
 -2.017499924E+00 3.314540386E-01 -7.855989470E-11
 -2.017499924E+00 3.327384591E-01 -7.781193745E-11
 -2.017499924E+00 3.340228498E-01 -7.706399408E-11
 -2.017499924E+00 3.353072703E-01 -7.632910970E-11
 -2.017499924E+00 3.365916610E-01 -7.565465615E-11
 -2.017499924E+00 3.378760815E-01 -7.498018872E-11
 -2.017499924E+00 3.391605020E-01 -7.430572130E-11
 -2.017499924E+00 3.404448926E-01 -7.363126775E-11
 -2.017499924E+00 3.417293131E-01 -7.295680032E-11
 -2.017499924E+00 3.430137038E-01 -7.228234677E-11
 -2.017499924E+00 3.442981243E-01 -7.160787935E-11
 -2.017499924E+00 3.455825150E-01 -7.093342580E-11
 -2.017499924E+00 3.468669355E-01 -7.025895837E-11
 -2.017499924E+00 3.481513262E-01 -6.958450482E-11
 -2.017499924E+00 3.494357467E-01 -6.891003740E-11
 -2.017499924E+00 3.507201374E-01 -6.829391219E-11
 -2.017499924E+00 3.520045578E-01 -6.768772348E-11
 -2.017499924E+00 3.532889485E-01 -6.708154865E-11
 -2.017499924E+00 3.545733690E-01 -6.647535994E-11
 -2.017499924E+00 3.558577597E-01 -6.586917817E-11
 -2.017499924E+00 3.571421802E-01 -6.526298946E-11
 -2.017499924E+00 3.584266007E-01 -6.465680075E-11
 -2.017499924E+00 3.597109914E-01 -6.405062591E-11
 -2.017499924E+00 3.609954119E-01 -6.344443026E-11
 -2.017499924E+00 3.622798026E-01 -6.283825543E-11
 -2.017499924E+00 3.635642231E-01 -6.223206672E-11
 -2.017499924E+00 3.648486137E-01 -6.162847316E-11
 -2.017499924E+00 3.661330342E-01 -6.108647616E-11
 -2.017499924E+00 3.674174249E-01 -6.054458324E-11
 -2.017499924E+00 3.687018454E-01 -6.000267644E-11
 -2.017499924E+00 3.699862361E-01 -5.946078352E-11
 -2.017499924E+00 3.712706566E-01 -5.891887672E-11
 -2.017499924E+00 3.725550473E-01 -5.837698380E-11
 -2.017499924E+00 3.738394678E-01 -5.783507701E-11
 -2.017499924E+00 3.751238585E-01 -5.729318409E-11
 -2.017499924E+00 3.764082789E-01 -5.675127729E-11
 -2.017499924E+00 3.776926994E-01 -5.620937049E-11
 -2.017499924E+00 3.789770901E-01 -5.566747757E-11
 -2.017499924E+00 3.802615106E-01 -5.512557077E-11
 -2.017499924E+00 3.815459013E-01 -5.462677879E-11
 -2.017499924E+00 3.828303218E-01 -5.414559426E-11
 -2.017499924E+00 3.841147125E-01 -5.366441666E-11
ZONE T="x/c=0.65"
 6.499999762E-01 1.161499992E-01 -4.520782360E-10
 6.499999762E-01 1.161757037E-01 -2.844137157E-07
 6.499999762E-01 1.161819994E-01 -6.378213584E-07
 6.499999762E-01 1.161884964E-01 -1.278500008E-06
 6.499999762E-01 1.161950976E-01 -2.347102509E-06
 6.499999762E-01 1.162016988E-01 -4.007731150E-06
 6.499999762E-01 1.162085012E-01 -6.545792985E-06
 6.499999762E-01 1.162153035E-01 -1.018269450E-05
 6.499999762E-01 1.162222996E-01 -1.538094693E-05
 6.499999762E-01 1.162293032E-01 -2.244649659E-05
 6.499999762E-01 1.162365004E-01 -3.206009933E-05
 6.499999762E-01 1.162438020E-01 -4.471678039E-05
 6.499999762E-01 1.162512973E-01 -6.129573740E-05
 6.499999762E-01 1.162588969E-01 -8.238685405E-05
 6.499999762E-01 1.162666976E-01 -1.090760416E-04
 6.499999762E-01 1.162746996E-01 -1.423253998E-04
 6.499999762E-01 1.162827983E-01 -1.823508210E-04
 6.499999762E-01 1.162912026E-01 -2.311516437E-04
 6.499999762E-01 1.162997037E-01 -2.879157546E-04
 6.499999762E-01 1.163085029E-01 -3.543500497E-04
 6.499999762E-01 1.163175032E-01 -4.304839240E-04
 6.499999762E-01 1.163268983E-01 -5.166798364E-04
 6.499999762E-01 1.163363978E-01 -6.095498684E-04
 6.499999762E-01 1.163462996E-01 -7.103395183E-04
 6.499999762E-01 1.163564995E-01 -8.165015024E-04
 6.499999762E-01 1.163669974E-01 -9.259538492E-04
 6.499999762E-01 1.163778976E-01 -1.037611160E-03
 6.499999762E-01 1.163891032E-01 -1.148435520E-03
 6.499999762E-01 1.164008006E-01 -1.258271746E-03
 6.499999762E-01 1.164128035E-01 -1.363702002E-03
 6.499999762E-01 1.164252982E-01 -1.465016627E-03
 6.499999762E-01 1.164382026E-01 -1.560375793E-03
 6.499999762E-01 1.164515987E-01 -1.649703481E-03
 6.499999762E-01 1.164655015E-01 -1.732801204E-03
 6.499999762E-01 1.164799035E-01 -1.809209702E-03
 6.499999762E-01 1.164949015E-01 -1.879178453E-03
 6.499999762E-01 1.165105030E-01 -1.943439012E-03
 6.499999762E-01 1.165267006E-01 -2.002131892E-03
 6.499999762E-01 1.165435016E-01 -2.055620309E-03
 6.499999762E-01 1.165610030E-01 -2.104654675E-03
 6.499999762E-01 1.165791005E-01 -2.149233129E-03
 6.499999762E-01 1.165980995E-01 -2.190412488E-03
 6.499999762E-01 1.166177019E-01 -2.227873309E-03
 6.499999762E-01 1.166381985E-01 -2.262482885E-03
 6.499999762E-01 1.166594997E-01 -2.294329228E-03
 6.499999762E-01 1.166817024E-01 -2.323815832E-03
 6.499999762E-01 1.167049035E-01 -2.351253061E-03
 6.499999762E-01 1.167289019E-01 -2.376608783E-03
 6.499999762E-01 1.167540029E-01 -2.400395228E-03
 6.499999762E-01 1.167801023E-01 -2.422642894E-03
 6.499999762E-01 1.168072969E-01 -2.443568548E-03
 6.499999762E-01 1.168356985E-01 -2.463368233E-03
 6.499999762E-01 1.168652996E-01 -2.482102253E-03
 6.499999762E-01 1.168961003E-01 -2.499850467E-03
 6.499999762E-01 1.169281974E-01 -2.516741399E-03
 6.499999762E-01 1.169617027E-01 -2.532872371E-03
 6.499999762E-01 1.169964969E-01 -2.548226621E-03
 6.499999762E-01 1.170329005E-01 -2.562939888E-03
 6.499999762E-01 1.170708016E-01 -2.577015199E-03
 6.499999762E-01 1.171104014E-01 -2.590533812E-03
 6.499999762E-01 1.171516031E-01 -2.603450324E-03
 6.499999762E-01 1.171946004E-01 -2.615821315E-03
 6.499999762E-01 1.172394976E-01 -2.627652138E-03
 6.499999762E-01 1.172861978E-01 -2.638890874E-03
 6.499999762E-01 1.173349991E-01 -2.649578964E-03
 6.499999762E-01 1.173857972E-01 -2.659650985E-03
 6.499999762E-01 1.174388975E-01 -2.669126494E-03
 6.499999762E-01 1.174942032E-01 -2.677935408E-03
 6.499999762E-01 1.175519004E-01 -2.686057473E-03
 6.499999762E-01 1.176121011E-01 -2.693451475E-03
 6.499999762E-01 1.176747978E-01 -2.700059675E-03
 6.499999762E-01 1.177403033E-01 -2.705856692E-03
 6.499999762E-01 1.178086028E-01 -2.710768720E-03
 6.499999762E-01 1.178798974E-01 -2.714742906E-03
 6.499999762E-01 1.179542020E-01 -2.717741765E-03
 6.499999762E-01 1.180317029E-01 -2.719718032E-03
 6.499999762E-01 1.181124970E-01 -2.720620949E-03
 6.499999762E-01 1.181968972E-01 -2.720402088E-03
 6.499999762E-01 1.182847992E-01 -2.719014883E-03
 6.499999762E-01 1.183765978E-01 -2.716412768E-03
 6.499999762E-01 1.184723973E-01 -2.712553833E-03
 6.499999762E-01 1.185721979E-01 -2.707408508E-03
 6.499999762E-01 1.186764017E-01 -2.700923476E-03
 6.499999762E-01 1.187850013E-01 -2.693045884E-03
 6.499999762E-01 1.188983992E-01 -2.683812752E-03
 6.499999762E-01 1.190166026E-01 -2.673210576E-03
 6.499999762E-01 1.191399992E-01 -2.661194187E-03
 6.499999762E-01 1.192686036E-01 -2.647757297E-03
 6.499999762E-01 1.194028035E-01 -2.632859629E-03
 6.499999762E-01 1.195427999E-01 -2.616482787E-03
 6.499999762E-01 1.196888983E-01 -2.598595340E-03
 6.499999762E-01 1.198412031E-01 -2.579201246E-03
 6.499999762E-01 1.200001016E-01 -2.558271168E-03
 6.499999762E-01 1.201658994E-01 -2.535785316E-03
 6.499999762E-01 1.203389019E-01 -2.511729021E-03
 6.499999762E-01 1.205193028E-01 -2.486108337E-03
 6.499999762E-01 1.207074970E-01 -2.458898583E-03
 6.499999762E-01 1.209039018E-01 -2.430076711E-03
 6.499999762E-01 1.211087033E-01 -2.399660880E-03
 6.499999762E-01 1.213224977E-01 -2.367648529E-03
 6.499999762E-01 1.215455011E-01 -2.334114164E-03
 6.499999762E-01 1.217781976E-01 -2.298990730E-03
 6.499999762E-01 1.220211014E-01 -2.262152266E-03
 6.499999762E-01 1.222745031E-01 -2.223590389E-03
 6.499999762E-01 1.225389019E-01 -2.183368197E-03
 6.499999762E-01 1.228149012E-01 -2.141792560E-03
 6.499999762E-01 1.231029034E-01 -2.098691184E-03
 6.499999762E-01 1.234034970E-01 -2.054062672E-03
 6.499999762E-01 1.237171963E-01 -2.008027863E-03
 6.499999762E-01 1.240447015E-01 -1.960691065E-03
 6.499999762E-01 1.243864968E-01 -1.912050764E-03
 6.499999762E-01 1.247432977E-01 -1.862194273E-03
 6.499999762E-01 1.251157969E-01 -1.811224152E-03
 6.499999762E-01 1.255044937E-01 -1.759284292E-03
 6.499999762E-01 1.259101927E-01 -1.706509618E-03
 6.499999762E-01 1.263336986E-01 -1.653080573E-03
 6.499999762E-01 1.267755926E-01 -1.599185751E-03
 6.499999762E-01 1.272369027E-01 -1.544963685E-03
 6.499999762E-01 1.277181953E-01 -1.490650233E-03
 6.499999762E-01 1.282204986E-01 -1.436447608E-03
 6.499999762E-01 1.287447959E-01 -1.382614137E-03
 6.499999762E-01 1.292918026E-01 -1.329413033E-03
 6.499999762E-01 1.298626065E-01 -1.277062111E-03
 6.499999762E-01 1.304582059E-01 -1.225818880E-03
 6.499999762E-01 1.310797036E-01 -1.175930956E-03
 6.499999762E-01 1.317282021E-01 -1.127671334E-03
 6.499999762E-01 1.324048936E-01 -1.081250608E-03
 6.499999762E-01 1.331108958E-01 -1.036885544E-03
 6.499999762E-01 1.338475943E-01 -9.947894141E-04
 6.499999762E-01 1.346161962E-01 -9.551119874E-04
 6.499999762E-01 1.354182065E-01 -9.179538465E-04
 6.499999762E-01 1.362549067E-01 -8.834194741E-04
 6.499999762E-01 1.371279955E-01 -8.515344816E-04
 6.499999762E-01 1.380387992E-01 -8.222595789E-04
 6.499999762E-01 1.389891952E-01 -7.955247420E-04
 6.499999762E-01 1.399807930E-01 -7.712041843E-04
 6.499999762E-01 1.410153955E-01 -7.491042488E-04
 6.499999762E-01 1.420948058E-01 -7.290123031E-04
 6.499999762E-01 1.432210058E-01 -7.106575649E-04
 6.499999762E-01 1.443960965E-01 -6.937141297E-04
 6.499999762E-01 1.456221044E-01 -6.778316456E-04
 6.499999762E-01 1.469012052E-01 -6.626415998E-04
 6.499999762E-01 1.482359022E-01 -6.477701245E-04
 6.499999762E-01 1.496284008E-01 -6.328058662E-04
 6.499999762E-01 1.510812938E-01 -6.173760630E-04
 6.499999762E-01 1.525972933E-01 -6.010843790E-04
 6.499999762E-01 1.541790068E-01 -5.836102064E-04
 6.499999762E-01 1.558292955E-01 -5.646084901E-04
 6.499999762E-01 1.575511992E-01 -5.438601365E-04
 6.499999762E-01 1.593476981E-01 -5.210992531E-04
 6.499999762E-01 1.612222940E-01 -4.962004605E-04
 6.499999762E-01 1.631781012E-01 -4.690108763E-04
 6.499999762E-01 1.652188003E-01 -4.395395517E-04
 6.499999762E-01 1.673479974E-01 -4.077590129E-04
 6.499999762E-01 1.695697010E-01 -3.738432715E-04
 6.499999762E-01 1.718876958E-01 -3.379188129E-04
 6.499999762E-01 1.743061990E-01 -3.003334277E-04
 6.499999762E-01 1.768296957E-01 -2.613976249E-04
 6.499999762E-01 1.794627011E-01 -2.216549474E-04
 6.499999762E-01 1.822099984E-01 -1.816673030E-04
 6.499999762E-01 1.850764006E-01 -1.422454370E-04
 6.499999762E-01 1.880671978E-01 -1.042920994E-04
 6.499999762E-01 1.911877990E-01 -6.898713036E-05
 6.499999762E-01 1.944438070E-01 -3.768836177E-05
 6.499999762E-01 1.978410035E-01 -1.195003279E-05
 6.499999762E-01 2.013857067E-01 6.647248028E-06
 6.499999762E-01 2.050842047E-01 1.702110421E-05
 6.499999762E-01 2.089432031E-01 1.949086072E-05
 6.499999762E-01 2.129696012E-01 1.649744991E-05
 6.499999762E-01 2.171707004E-01 1.124234677E-05
 6.499999762E-01 2.215541005E-01 6.135889180E-06
 6.499999762E-01 2.261276990E-01 2.583386731E-06
 6.499999762E-01 2.308997959E-01 9.084662338E-07
 6.499999762E-01 2.358788997E-01 3.577171412E-07
 6.499999762E-01 2.410741001E-01 1.987624927E-07
 6.499999762E-01 2.464946955E-01 1.488266292E-07
 6.499999762E-01 2.521505058E-01 1.313220679E-07
 6.499999762E-01 2.580518126E-01 1.246859398E-07
 6.499999762E-01 2.642090023E-01 1.218632946E-07
 6.499999762E-01 2.706334889E-01 1.203140556E-07
 6.499999762E-01 2.773366868E-01 1.191373258E-07
 6.499999762E-01 2.843307853E-01 1.180336184E-07
 6.499999762E-01 2.916283906E-01 1.168394448E-07
 6.499999762E-01 2.992425859E-01 1.153817308E-07
 6.499999762E-01 3.071871996E-01 1.136452283E-07
 6.499999762E-01 3.154765964E-01 1.117675410E-07
 6.499999762E-01 3.241255879E-01 1.098244553E-07
 6.499999762E-01 3.331499100E-01 1.077266134E-07
 6.499999762E-01 3.425656855E-01 1.054238368E-07
 6.499999762E-01 3.523901999E-01 1.030162551E-07
 6.499999762E-01 3.626408875E-01 1.004950434E-07
 6.499999762E-01 3.733364046E-01 9.777470211E-08
 6.499999762E-01 3.844959140E-01 9.489883723E-08
 6.499999762E-01 3.961397111E-01 9.192677197E-08
 6.499999762E-01 4.082886875E-01 8.884764213E-08
 6.499999762E-01 4.209648073E-01 8.566166798E-08
 6.499999762E-01 4.341908991E-01 8.237543625E-08
 6.499999762E-01 4.479908943E-01 7.900413834E-08
 6.499999762E-01 4.623895884E-01 7.556072035E-08
 6.499999762E-01 4.774130881E-01 7.205468222E-08
 6.499999762E-01 4.930885136E-01 6.849966638E-08
 6.499999762E-01 5.094438791E-01 6.490872551E-08
 6.499999762E-01 5.265089869E-01 6.129537411E-08
 6.499999762E-01 5.443145037E-01 5.767421030E-08
 6.499999762E-01 5.628924966E-01 5.406182169E-08
 6.499999762E-01 5.822765231E-01 5.047519025E-08
 6.499999762E-01 6.025015712E-01 4.693602307E-08
 6.499999762E-01 6.236041188E-01 4.346840399E-08
 6.499999762E-01 6.456223130E-01 4.010650301E-08
 6.499999762E-01 6.685956120E-01 3.689233807E-08
 6.499999762E-01 6.925656796E-01 3.392162640E-08
 6.499999762E-01 7.175757289E-01 3.128664972E-08
 6.499999762E-01 7.436707020E-01 2.906978835E-08
 6.499999762E-01 7.708979249E-01 2.638460295E-08
 6.499999762E-01 7.993062735E-01 2.245242392E-08
 6.499999762E-01 8.289471269E-01 2.631843898E-08
 6.499999762E-01 8.598734736E-01 2.870126536E-08
 6.499999762E-01 8.921396732E-01 0.000000000E+00
ZONE T="x/c=0.8"
 8.000000119E-01 2.460199967E-02 0.000000000E+00
 8.000000119E-01 2.461059950E-02 0.000000000E+00
 8.000000119E-01 2.461968921E-02 1.598363976E-11
 8.000000119E-01 2.462900989E-02 1.625902885E-10
 8.000000119E-01 2.463857085E-02 7.577097838E-10
 8.000000119E-01 2.464839071E-02 2.292059875E-09
 8.000000119E-01 2.465848066E-02 5.498244526E-09
 8.000000119E-01 2.466885932E-02 1.152670226E-08
 8.000000119E-01 2.467953973E-02 2.236122931E-08
 8.000000119E-01 2.469055913E-02 4.062289349E-08
 8.000000119E-01 2.470193058E-02 6.852709333E-08
 8.000000119E-01 2.471365966E-02 1.105093048E-07
 8.000000119E-01 2.472578920E-02 1.747712588E-07
 8.000000119E-01 2.473831922E-02 2.660780751E-07
 8.000000119E-01 2.475129999E-02 3.936535791E-07
 8.000000119E-01 2.476472966E-02 5.736855542E-07
 8.000000119E-01 2.477863990E-02 8.223564691E-07
 8.000000119E-01 2.479306050E-02 1.152684263E-06
 8.000000119E-01 2.480801009E-02 1.595895355E-06
 8.000000119E-01 2.482352033E-02 2.197640924E-06
 8.000000119E-01 2.483961917E-02 2.968139142E-06
 8.000000119E-01 2.485634014E-02 3.970595571E-06
 8.000000119E-01 2.487370931E-02 5.285333373E-06
 8.000000119E-01 2.489176020E-02 6.956995549E-06
 8.000000119E-01 2.491050959E-02 9.044927538E-06
 8.000000119E-01 2.493002079E-02 1.165867616E-05
 8.000000119E-01 2.495029941E-02 1.496287678E-05
 8.000000119E-01 2.497139946E-02 1.896397407E-05
 8.000000119E-01 2.499335073E-02 2.376294287E-05
 8.000000119E-01 2.501620911E-02 2.949328882E-05
 8.000000119E-01 2.503998950E-02 3.627260958E-05
 8.000000119E-01 2.506476082E-02 4.410219117E-05
 8.000000119E-01 2.509054914E-02 5.288711691E-05
 8.000000119E-01 2.511741035E-02 6.265893171E-05
 8.000000119E-01 2.514538914E-02 7.332305540E-05
 8.000000119E-01 2.517453954E-02 8.470423199E-05
 8.000000119E-01 2.520490997E-02 9.656579641E-05
 8.000000119E-01 2.523656003E-02 1.086498960E-04
 8.000000119E-01 2.526954003E-02 1.207220193E-04
 8.000000119E-01 2.530392073E-02 1.325808116E-04
 8.000000119E-01 2.533975057E-02 1.439926709E-04
 8.000000119E-01 2.537710033E-02 1.547458960E-04
 8.000000119E-01 2.541604079E-02 1.645878801E-04
 8.000000119E-01 2.545664087E-02 1.735192782E-04
 8.000000119E-01 2.549898066E-02 1.814759307E-04
 8.000000119E-01 2.554311045E-02 1.884196245E-04
 8.000000119E-01 2.558914013E-02 1.943368843E-04
 8.000000119E-01 2.563714050E-02 1.992269390E-04
 8.000000119E-01 2.568719909E-02 2.031032200E-04
 8.000000119E-01 2.573939972E-02 2.059949766E-04
 8.000000119E-01 2.579385042E-02 2.079245896E-04
 8.000000119E-01 2.585064061E-02 2.088721812E-04
 8.000000119E-01 2.590987086E-02 2.089391492E-04
 8.000000119E-01 2.597164921E-02 2.081528219E-04
 8.000000119E-01 2.603610046E-02 2.065434237E-04
 8.000000119E-01 2.610331960E-02 2.041315602E-04
 8.000000119E-01 2.617345005E-02 2.009256423E-04
 8.000000119E-01 2.624659985E-02 1.969368168E-04
 8.000000119E-01 2.632291056E-02 1.921691437E-04
 8.000000119E-01 2.640252002E-02 1.866228413E-04
 8.000000119E-01 2.648556978E-02 1.802963234E-04
 8.000000119E-01 2.657221071E-02 1.731747179E-04
 8.000000119E-01 2.666259930E-02 1.652501669E-04
 8.000000119E-01 2.675689943E-02 1.564883278E-04
 8.000000119E-01 2.685528994E-02 1.468631090E-04
 8.000000119E-01 2.695792913E-02 1.363628835E-04
 8.000000119E-01 2.706502005E-02 1.249630877E-04
 8.000000119E-01 2.717675082E-02 1.126715579E-04
 8.000000119E-01 2.729333006E-02 9.947687795E-05
 8.000000119E-01 2.741494961E-02 8.536667883E-05
 8.000000119E-01 2.754184976E-02 7.032270514E-05
 8.000000119E-01 2.767425030E-02 5.433699334E-05