# CFL3D results for NASA wall-mounted hump, fine grid from CFDVAL2004, SSG/LRR-R
VARIABLES = "x/c","y/c","u/Uref"                                                
ZONE T="x/c=-2.14"                                                              
 -0.2140000105E+01  0.7713619561E-04  0.9917891584E-01
 -0.2140000105E+01  0.1361542847E-02  0.5311140418E+00
 -0.2140000105E+01  0.2645949367E-02  0.6014706567E+00
 -0.2140000105E+01  0.3930355888E-02  0.6410793960E+00
 -0.2140000105E+01  0.5214762874E-02  0.6688433886E+00
 -0.2140000105E+01  0.6499169394E-02  0.6903678924E+00
 -0.2140000105E+01  0.7783575915E-02  0.7080452144E+00
 -0.2140000105E+01  0.9067982435E-02  0.7230886817E+00
 -0.2140000105E+01  0.1035238896E-01  0.7362823188E+00
 -0.2140000105E+01  0.1163679548E-01  0.7480760664E+00
 -0.2140000105E+01  0.1292120293E-01  0.7588024437E+00
 -0.2140000105E+01  0.1420560945E-01  0.7686694711E+00
 -0.2140000105E+01  0.1549001597E-01  0.7778479904E+00
 -0.2140000105E+01  0.1677442156E-01  0.7864788920E+00
 -0.2140000105E+01  0.1805882901E-01  0.7946322113E+00
 -0.2140000105E+01  0.1934323646E-01  0.8024171740E+00
 -0.2140000105E+01  0.2062764205E-01  0.8098991960E+00
 -0.2140000105E+01  0.2191204950E-01  0.8171091229E+00
 -0.2140000105E+01  0.2319645509E-01  0.8241121471E+00
 -0.2140000105E+01  0.2448086254E-01  0.8309521526E+00
 -0.2140000105E+01  0.2576526813E-01  0.8376505971E+00
 -0.2140000105E+01  0.2704967558E-01  0.8442490548E+00
 -0.2140000105E+01  0.2833408304E-01  0.8507895470E+00
 -0.2140000105E+01  0.2961848862E-01  0.8573168516E+00
 -0.2140000105E+01  0.3090289608E-01  0.8638954163E+00
 -0.2140000105E+01  0.3218730167E-01  0.8706115931E+00
 -0.2140000105E+01  0.3347170725E-01  0.8775529265E+00
 -0.2140000105E+01  0.3475611657E-01  0.8847713470E+00
 -0.2140000105E+01  0.3604052216E-01  0.8922600746E+00
 -0.2140000105E+01  0.3732492775E-01  0.8999537677E+00
 -0.2140000105E+01  0.3860933334E-01  0.9076412767E+00
 -0.2140000105E+01  0.3989374265E-01  0.9151997417E+00
 -0.2140000105E+01  0.4117814824E-01  0.9225489199E+00
 -0.2140000105E+01  0.4246255383E-01  0.9295257181E+00
 -0.2140000105E+01  0.4374696314E-01  0.9359514713E+00
 -0.2140000105E+01  0.4503136873E-01  0.9419968724E+00
 -0.2140000105E+01  0.4631577432E-01  0.9476169944E+00
 -0.2140000105E+01  0.4760017991E-01  0.9527764469E+00
 -0.2140000105E+01  0.4888458923E-01  0.9577576816E+00
 -0.2140000105E+01  0.5016899481E-01  0.9624820948E+00
 -0.2140000105E+01  0.5145340040E-01  0.9669905156E+00
 -0.2140000105E+01  0.5273780972E-01  0.9713918716E+00
 -0.2140000105E+01  0.5402221531E-01  0.9754230082E+00
 -0.2140000105E+01  0.5530662090E-01  0.9793399274E+00
 -0.2140000105E+01  0.5659102648E-01  0.9827948362E+00
 -0.2140000105E+01  0.5787543580E-01  0.9859932959E+00
 -0.2140000105E+01  0.5915984139E-01  0.9886337817E+00
 -0.2140000105E+01  0.6044424698E-01  0.9909028560E+00
 -0.2140000105E+01  0.6172865629E-01  0.9925483912E+00
 -0.2140000105E+01  0.6301306188E-01  0.9938829392E+00
 -0.2140000105E+01  0.6429746747E-01  0.9946333617E+00
 -0.2140000105E+01  0.6558187306E-01  0.9952592105E+00
 -0.2140000105E+01  0.6686627865E-01  0.9954763949E+00
 -0.2140000105E+01  0.6815068424E-01  0.9956884384E+00
 -0.2140000105E+01  0.6943509728E-01  0.9957198054E+00
 -0.2140000105E+01  0.7071950287E-01  0.9957511723E+00
 -0.2140000105E+01  0.7200390846E-01  0.9957614541E+00
 -0.2140000105E+01  0.7328831404E-01  0.9957637638E+00
 -0.2140000105E+01  0.7457271963E-01  0.9957661480E+00
 -0.2140000105E+01  0.7585712522E-01  0.9957686067E+00
 -0.2140000105E+01  0.7714153081E-01  0.9957711399E+00
 -0.2140000105E+01  0.7842594385E-01  0.9957738221E+00
 -0.2140000105E+01  0.7971034944E-01  0.9957765043E+00
 -0.2140000105E+01  0.8099475503E-01  0.9957791865E+00
 -0.2140000105E+01  0.8227916062E-01  0.9957817942E+00
 -0.2140000105E+01  0.8356356621E-01  0.9957844764E+00
 -0.2140000105E+01  0.8484797180E-01  0.9957870096E+00
 -0.2140000105E+01  0.8613237739E-01  0.9957896173E+00
 -0.2140000105E+01  0.8741679043E-01  0.9957921505E+00
 -0.2140000105E+01  0.8870119601E-01  0.9957946837E+00
 -0.2140000105E+01  0.8998560160E-01  0.9957971424E+00
 -0.2140000105E+01  0.9127000719E-01  0.9957996756E+00
 -0.2140000105E+01  0.9255441278E-01  0.9958021343E+00
 -0.2140000105E+01  0.9383881837E-01  0.9958045185E+00
 -0.2140000105E+01  0.9512322396E-01  0.9958069772E+00
 -0.2140000105E+01  0.9640763700E-01  0.9958093613E+00
 -0.2140000105E+01  0.9769204259E-01  0.9958116710E+00
 -0.2140000105E+01  0.9897644818E-01  0.9958140552E+00
 -0.2140000105E+01  0.1002608538E+00  0.9958163649E+00
 -0.2140000105E+01  0.1015452594E+00  0.9958186746E+00
 -0.2140000105E+01  0.1028296649E+00  0.9958209842E+00
 -0.2140000105E+01  0.1041140705E+00  0.9958232939E+00
 -0.2140000105E+01  0.1053984836E+00  0.9958255291E+00
 -0.2140000105E+01  0.1066828892E+00  0.9958276898E+00
 -0.2140000105E+01  0.1079672948E+00  0.9958299249E+00
 -0.2140000105E+01  0.1092517003E+00  0.9958320856E+00
 -0.2140000105E+01  0.1105361059E+00  0.9958341718E+00
 -0.2140000105E+01  0.1118205115E+00  0.9958362579E+00
 -0.2140000105E+01  0.1131049171E+00  0.9958384186E+00
 -0.2140000105E+01  0.1143893301E+00  0.9958404303E+00
 -0.2140000105E+01  0.1156737357E+00  0.9958425164E+00
 -0.2140000105E+01  0.1169581413E+00  0.9958446026E+00
 -0.2140000105E+01  0.1182425469E+00  0.9958466887E+00
 -0.2140000105E+01  0.1195269525E+00  0.9958487004E+00
 -0.2140000105E+01  0.1208113581E+00  0.9958507121E+00
 -0.2140000105E+01  0.1220957637E+00  0.9958527237E+00
 -0.2140000105E+01  0.1233801767E+00  0.9958546609E+00
 -0.2140000105E+01  0.1246645823E+00  0.9958565980E+00
 -0.2140000105E+01  0.1259489805E+00  0.9958585352E+00
 -0.2140000105E+01  0.1272333860E+00  0.9958604723E+00
 -0.2140000105E+01  0.1285178065E+00  0.9958624095E+00
 -0.2140000105E+01  0.1298022121E+00  0.9958642721E+00
 -0.2140000105E+01  0.1310866177E+00  0.9958661348E+00
 -0.2140000105E+01  0.1323710233E+00  0.9958679974E+00
 -0.2140000105E+01  0.1336554289E+00  0.9958698601E+00
 -0.2140000105E+01  0.1349398345E+00  0.9958717227E+00
 -0.2140000105E+01  0.1362242401E+00  0.9958735108E+00
 -0.2140000105E+01  0.1375086457E+00  0.9958752245E+00
 -0.2140000105E+01  0.1387930512E+00  0.9958770126E+00
 -0.2140000105E+01  0.1400774568E+00  0.9958788007E+00
 -0.2140000105E+01  0.1413618624E+00  0.9958805144E+00
 -0.2140000105E+01  0.1426462680E+00  0.9958822280E+00
 -0.2140000105E+01  0.1439306736E+00  0.9958839417E+00
 -0.2140000105E+01  0.1452150792E+00  0.9958856553E+00
 -0.2140000105E+01  0.1464994997E+00  0.9958873689E+00
 -0.2140000105E+01  0.1477839053E+00  0.9958890080E+00
 -0.2140000105E+01  0.1490683109E+00  0.9958906472E+00
 -0.2140000105E+01  0.1503527164E+00  0.9958922863E+00
 -0.2140000105E+01  0.1516371220E+00  0.9958938509E+00
 -0.2140000105E+01  0.1529215276E+00  0.9958954901E+00
 -0.2140000105E+01  0.1542059332E+00  0.9958970547E+00
 -0.2140000105E+01  0.1554903388E+00  0.9958986193E+00
 -0.2140000105E+01  0.1567747444E+00  0.9959001094E+00
 -0.2140000105E+01  0.1580591500E+00  0.9959016740E+00
 -0.2140000105E+01  0.1593435556E+00  0.9959032387E+00
 -0.2140000105E+01  0.1606279612E+00  0.9959047288E+00
 -0.2140000105E+01  0.1619123667E+00  0.9959061444E+00
 -0.2140000105E+01  0.1631967723E+00  0.9959076345E+00
 -0.2140000105E+01  0.1644811779E+00  0.9959091246E+00
 -0.2140000105E+01  0.1657655984E+00  0.9959106147E+00
 -0.2140000105E+01  0.1670500040E+00  0.9959120303E+00
 -0.2140000105E+01  0.1683344096E+00  0.9959134459E+00
 -0.2140000105E+01  0.1696188152E+00  0.9959148616E+00
 -0.2140000105E+01  0.1709032208E+00  0.9959162772E+00
 -0.2140000105E+01  0.1721876264E+00  0.9959176928E+00
 -0.2140000105E+01  0.1734720320E+00  0.9959191084E+00
 -0.2140000105E+01  0.1747564375E+00  0.9959204495E+00
 -0.2140000105E+01  0.1760408431E+00  0.9959217906E+00
 -0.2140000105E+01  0.1773252487E+00  0.9959230572E+00
 -0.2140000105E+01  0.1786096543E+00  0.9959243983E+00
 -0.2140000105E+01  0.1798940599E+00  0.9959257394E+00
 -0.2140000105E+01  0.1811784655E+00  0.9959270805E+00
 -0.2140000105E+01  0.1824628711E+00  0.9959283471E+00
 -0.2140000105E+01  0.1837472916E+00  0.9959296137E+00
 -0.2140000105E+01  0.1850316972E+00  0.9959308803E+00
 -0.2140000105E+01  0.1863161027E+00  0.9959320724E+00
 -0.2140000105E+01  0.1876005083E+00  0.9959333390E+00
 -0.2140000105E+01  0.1888849139E+00  0.9959346056E+00
 -0.2140000105E+01  0.1901693195E+00  0.9959357977E+00
 -0.2140000105E+01  0.1914537251E+00  0.9959369898E+00
 -0.2140000105E+01  0.1927381307E+00  0.9959381819E+00
 -0.2140000105E+01  0.1940225363E+00  0.9959393740E+00
 -0.2140000105E+01  0.1953069419E+00  0.9959405661E+00
 -0.2140000105E+01  0.1965913475E+00  0.9959417582E+00
 -0.2140000105E+01  0.1978757530E+00  0.9959428757E+00
 -0.2140000105E+01  0.1991601586E+00  0.9959439933E+00
 -0.2140000105E+01  0.2004445642E+00  0.9959451109E+00
 -0.2140000105E+01  0.2017289847E+00  0.9959462285E+00
 -0.2140000105E+01  0.2030133903E+00  0.9959473461E+00
 -0.2140000105E+01  0.2042977959E+00  0.9959484637E+00
 -0.2140000105E+01  0.2055822015E+00  0.9959495068E+00
 -0.2140000105E+01  0.2068666071E+00  0.9959505498E+00
 -0.2140000105E+01  0.2081510127E+00  0.9959515929E+00
 -0.2140000105E+01  0.2094354182E+00  0.9959526360E+00
 -0.2140000105E+01  0.2107198238E+00  0.9959536791E+00
 -0.2140000105E+01  0.2120042294E+00  0.9959547222E+00
 -0.2140000105E+01  0.2132886350E+00  0.9959557652E+00
 -0.2140000105E+01  0.2145730406E+00  0.9959568083E+00
 -0.2140000105E+01  0.2158574462E+00  0.9959577769E+00
 -0.2140000105E+01  0.2171418518E+00  0.9959587455E+00
 -0.2140000105E+01  0.2184262574E+00  0.9959597141E+00
 -0.2140000105E+01  0.2197106779E+00  0.9959607571E+00
 -0.2140000105E+01  0.2209950835E+00  0.9959617257E+00
 -0.2140000105E+01  0.2222794890E+00  0.9959626943E+00
 -0.2140000105E+01  0.2235638946E+00  0.9959636629E+00
 -0.2140000105E+01  0.2248483002E+00  0.9959645569E+00
 -0.2140000105E+01  0.2261327058E+00  0.9959654510E+00
 -0.2140000105E+01  0.2274171114E+00  0.9959663451E+00
 -0.2140000105E+01  0.2287015170E+00  0.9959672391E+00
 -0.2140000105E+01  0.2299859226E+00  0.9959681332E+00
 -0.2140000105E+01  0.2312703282E+00  0.9959690273E+00
 -0.2140000105E+01  0.2325547338E+00  0.9959699214E+00
 -0.2140000105E+01  0.2338391393E+00  0.9959708154E+00
 -0.2140000105E+01  0.2351235449E+00  0.9959716350E+00
 -0.2140000105E+01  0.2364079505E+00  0.9959725291E+00
 -0.2140000105E+01  0.2376923561E+00  0.9959733486E+00
 -0.2140000105E+01  0.2389767766E+00  0.9959741682E+00
 -0.2140000105E+01  0.2402611822E+00  0.9959750623E+00
 -0.2140000105E+01  0.2415455878E+00  0.9959758818E+00
 -0.2140000105E+01  0.2428299934E+00  0.9959767014E+00
 -0.2140000105E+01  0.2441143990E+00  0.9959775209E+00
 -0.2140000105E+01  0.2453988045E+00  0.9959782660E+00
 -0.2140000105E+01  0.2466832101E+00  0.9959790856E+00
 -0.2140000105E+01  0.2479676157E+00  0.9959798306E+00
 -0.2140000105E+01  0.2492520213E+00  0.9959805757E+00
 -0.2140000105E+01  0.2505364418E+00  0.9959813952E+00
 -0.2140000105E+01  0.2518208325E+00  0.9959821403E+00
 -0.2140000105E+01  0.2531052530E+00  0.9959828854E+00
 -0.2140000105E+01  0.2543896437E+00  0.9959837049E+00
 -0.2140000105E+01  0.2556740642E+00  0.9959843755E+00
 -0.2140000105E+01  0.2569584548E+00  0.9959851205E+00
 -0.2140000105E+01  0.2582428753E+00  0.9959857911E+00
 -0.2140000105E+01  0.2595272660E+00  0.9959865361E+00
 -0.2140000105E+01  0.2608116865E+00  0.9959872067E+00
 -0.2140000105E+01  0.2620960772E+00  0.9959879518E+00
 -0.2140000105E+01  0.2633804977E+00  0.9959886223E+00
 -0.2140000105E+01  0.2646648884E+00  0.9959893674E+00
 -0.2140000105E+01  0.2659493089E+00  0.9959900379E+00
 -0.2140000105E+01  0.2672337294E+00  0.9959907085E+00
 -0.2140000105E+01  0.2685181201E+00  0.9959913045E+00
 -0.2140000105E+01  0.2698025405E+00  0.9959919751E+00
 -0.2140000105E+01  0.2710869312E+00  0.9959925711E+00
 -0.2140000105E+01  0.2723713517E+00  0.9959932417E+00
 -0.2140000105E+01  0.2736557424E+00  0.9959939122E+00
 -0.2140000105E+01  0.2749401629E+00  0.9959945083E+00
 -0.2140000105E+01  0.2762245536E+00  0.9959951788E+00
 -0.2140000105E+01  0.2775089741E+00  0.9959957749E+00
 -0.2140000105E+01  0.2787933648E+00  0.9959963709E+00
 -0.2140000105E+01  0.2800777853E+00  0.9959969670E+00
 -0.2140000105E+01  0.2813621759E+00  0.9959975630E+00
 -0.2140000105E+01  0.2826465964E+00  0.9959981591E+00
 -0.2140000105E+01  0.2839310169E+00  0.9959986806E+00
 -0.2140000105E+01  0.2852154076E+00  0.9959992766E+00
 -0.2140000105E+01  0.2864998281E+00  0.9959998727E+00
 -0.2140000105E+01  0.2877842188E+00  0.9960004687E+00
 -0.2140000105E+01  0.2890686393E+00  0.9960010648E+00
 -0.2140000105E+01  0.2903530300E+00  0.9960015863E+00
 -0.2140000105E+01  0.2916374505E+00  0.9960021079E+00
 -0.2140000105E+01  0.2929218411E+00  0.9960026294E+00
 -0.2140000105E+01  0.2942062616E+00  0.9960032254E+00
 -0.2140000105E+01  0.2954906523E+00  0.9960037470E+00
 -0.2140000105E+01  0.2967750728E+00  0.9960042685E+00
 -0.2140000105E+01  0.2980594635E+00  0.9960047901E+00
 -0.2140000105E+01  0.2993438840E+00  0.9960053116E+00
 -0.2140000105E+01  0.3006282747E+00  0.9960059077E+00
 -0.2140000105E+01  0.3019126952E+00  0.9960063547E+00
 -0.2140000105E+01  0.3031971157E+00  0.9960068762E+00
 -0.2140000105E+01  0.3044815063E+00  0.9960073233E+00
 -0.2140000105E+01  0.3057659268E+00  0.9960077703E+00
 -0.2140000105E+01  0.3070503175E+00  0.9960082918E+00
 -0.2140000105E+01  0.3083347380E+00  0.9960087389E+00
 -0.2140000105E+01  0.3096191287E+00  0.9960092604E+00
 -0.2140000105E+01  0.3109035492E+00  0.9960097075E+00
 -0.2140000105E+01  0.3121879399E+00  0.9960101545E+00
 -0.2140000105E+01  0.3134723604E+00  0.9960106760E+00
 -0.2140000105E+01  0.3147567511E+00  0.9960111231E+00
 -0.2140000105E+01  0.3160411716E+00  0.9960115701E+00
 -0.2140000105E+01  0.3173255622E+00  0.9960119426E+00
 -0.2140000105E+01  0.3186099827E+00  0.9960123897E+00
 -0.2140000105E+01  0.3198943734E+00  0.9960128367E+00
 -0.2140000105E+01  0.3211787939E+00  0.9960132837E+00
 -0.2140000105E+01  0.3224632144E+00  0.9960136563E+00
 -0.2140000105E+01  0.3237476051E+00  0.9960141033E+00
 -0.2140000105E+01  0.3250320256E+00  0.9960145503E+00
 -0.2140000105E+01  0.3263164163E+00  0.9960149974E+00
 -0.2140000105E+01  0.3276008368E+00  0.9960153699E+00
 -0.2140000105E+01  0.3288852274E+00  0.9960158169E+00
 -0.2140000105E+01  0.3301696479E+00  0.9960161895E+00
 -0.2140000105E+01  0.3314540386E+00  0.9960164875E+00
 -0.2140000105E+01  0.3327384591E+00  0.9960168600E+00
 -0.2140000105E+01  0.3340228498E+00  0.9960172325E+00
 -0.2140000105E+01  0.3353072703E+00  0.9960176051E+00
 -0.2140000105E+01  0.3365916610E+00  0.9960179776E+00
 -0.2140000105E+01  0.3378760815E+00  0.9960183501E+00
 -0.2140000105E+01  0.3391605020E+00  0.9960187227E+00
 -0.2140000105E+01  0.3404448926E+00  0.9960190952E+00
 -0.2140000105E+01  0.3417293131E+00  0.9960194677E+00
 -0.2140000105E+01  0.3430137038E+00  0.9960198402E+00
 -0.2140000105E+01  0.3442981243E+00  0.9960201383E+00
 -0.2140000105E+01  0.3455825150E+00  0.9960205108E+00
 -0.2140000105E+01  0.3468669355E+00  0.9960208088E+00
 -0.2140000105E+01  0.3481513262E+00  0.9960211813E+00
 -0.2140000105E+01  0.3494357467E+00  0.9960214794E+00
 -0.2140000105E+01  0.3507201374E+00  0.9960218519E+00
 -0.2140000105E+01  0.3520045578E+00  0.9960221499E+00
 -0.2140000105E+01  0.3532889485E+00  0.9960225224E+00
 -0.2140000105E+01  0.3545733690E+00  0.9960228205E+00
 -0.2140000105E+01  0.3558577597E+00  0.9960231930E+00
 -0.2140000105E+01  0.3571421802E+00  0.9960234910E+00
 -0.2140000105E+01  0.3584266007E+00  0.9960237890E+00
 -0.2140000105E+01  0.3597109914E+00  0.9960240871E+00
 -0.2140000105E+01  0.3609954119E+00  0.9960243851E+00
 -0.2140000105E+01  0.3622798026E+00  0.9960246831E+00
 -0.2140000105E+01  0.3635642231E+00  0.9960249811E+00
 -0.2140000105E+01  0.3648486137E+00  0.9960252792E+00
 -0.2140000105E+01  0.3661330342E+00  0.9960255772E+00
 -0.2140000105E+01  0.3674174249E+00  0.9960258007E+00
 -0.2140000105E+01  0.3687018454E+00  0.9960260987E+00
 -0.2140000105E+01  0.3699862361E+00  0.9960263968E+00
 -0.2140000105E+01  0.3712706566E+00  0.9960266948E+00
 -0.2140000105E+01  0.3725550473E+00  0.9960269928E+00
 -0.2140000105E+01  0.3738394678E+00  0.9960272163E+00
 -0.2140000105E+01  0.3751238585E+00  0.9960275143E+00
 -0.2140000105E+01  0.3764082789E+00  0.9960277379E+00
 -0.2140000105E+01  0.3776926994E+00  0.9960279614E+00
 -0.2140000105E+01  0.3789770901E+00  0.9960282594E+00
 -0.2140000105E+01  0.3802615106E+00  0.9960284829E+00
 -0.2140000105E+01  0.3815459013E+00  0.9960287064E+00
 -0.2140000105E+01  0.3828303218E+00  0.9960290045E+00
 -0.2140000105E+01  0.3841147125E+00  0.9960292280E+00
ZONE T="x/c=0.65"                                                               
  0.6499999762E+00  0.1161499992E+00  0.1650921622E-02
  0.6499999762E+00  0.1161757037E+00  0.1328119426E-01
  0.6499999762E+00  0.1161819994E+00  0.1654190710E-01
  0.6499999762E+00  0.1161884964E+00  0.2008143812E-01
  0.6499999762E+00  0.1161950976E+00  0.2385227010E-01
  0.6499999762E+00  0.1162016988E+00  0.2779227216E-01
  0.6499999762E+00  0.1162085012E+00  0.3202709137E-01
  0.6499999762E+00  0.1162153035E+00  0.3642986994E-01
  0.6499999762E+00  0.1162222996E+00  0.4111778457E-01
  0.6499999762E+00  0.1162293032E+00  0.4597435240E-01
  0.6499999762E+00  0.1162365004E+00  0.5112670362E-01
  0.6499999762E+00  0.1162438020E+00  0.5650240462E-01
  0.6499999762E+00  0.1162512973E+00  0.6216590758E-01
  0.6499999762E+00  0.1162588969E+00  0.6804033183E-01
  0.6499999762E+00  0.1162666976E+00  0.7418163586E-01
  0.6499999762E+00  0.1162746996E+00  0.8057734929E-01
  0.6499999762E+00  0.1162827983E+00  0.8714012802E-01
  0.6499999762E+00  0.1162912026E+00  0.9400566109E-01
  0.6499999762E+00  0.1162997037E+00  0.1009838283E+00
  0.6499999762E+00  0.1163085029E+00  0.1082216017E+00
  0.6499999762E+00  0.1163175032E+00  0.1156151388E+00
  0.6499999762E+00  0.1163268983E+00  0.1232896373E+00
  0.6499999762E+00  0.1163363978E+00  0.1309843548E+00
  0.6499999762E+00  0.1163462996E+00  0.1389133185E+00
  0.6499999762E+00  0.1163564995E+00  0.1469541527E+00
  0.6499999762E+00  0.1163669974E+00  0.1550748199E+00
  0.6499999762E+00  0.1163778976E+00  0.1633264869E+00
  0.6499999762E+00  0.1163891032E+00  0.1715802774E+00
  0.6499999762E+00  0.1164008006E+00  0.1799557544E+00
  0.6499999762E+00  0.1164128035E+00  0.1882912777E+00
  0.6499999762E+00  0.1164252982E+00  0.1966926083E+00
  0.6499999762E+00  0.1164382026E+00  0.2050742134E+00
  0.6499999762E+00  0.1164515987E+00  0.2134625241E+00
  0.6499999762E+00  0.1164655015E+00  0.2218442596E+00
  0.6499999762E+00  0.1164799035E+00  0.2301969379E+00
  0.6499999762E+00  0.1164949015E+00  0.2385546640E+00
  0.6499999762E+00  0.1165105030E+00  0.2468970604E+00
  0.6499999762E+00  0.1165267006E+00  0.2552050911E+00
  0.6499999762E+00  0.1165435016E+00  0.2634731680E+00
  0.6499999762E+00  0.1165610030E+00  0.2717245370E+00
  0.6499999762E+00  0.1165791005E+00  0.2799081244E+00
  0.6499999762E+00  0.1165980995E+00  0.2881381288E+00
  0.6499999762E+00  0.1166177019E+00  0.2962820604E+00
  0.6499999762E+00  0.1166381985E+00  0.3044429421E+00
  0.6499999762E+00  0.1166594997E+00  0.3125610948E+00
  0.6499999762E+00  0.1166817024E+00  0.3206801787E+00
  0.6499999762E+00  0.1167049035E+00  0.3288219497E+00
  0.6499999762E+00  0.1167289019E+00  0.3369079158E+00
  0.6499999762E+00  0.1167540029E+00  0.3450304642E+00
  0.6499999762E+00  0.1167801023E+00  0.3531466052E+00
  0.6499999762E+00  0.1168072969E+00  0.3612764552E+00
  0.6499999762E+00  0.1168356985E+00  0.3694405407E+00
  0.6499999762E+00  0.1168652996E+00  0.3776290268E+00
  0.6499999762E+00  0.1168961003E+00  0.3858304024E+00
  0.6499999762E+00  0.1169281974E+00  0.3940619156E+00
  0.6499999762E+00  0.1169617027E+00  0.4023417085E+00
  0.6499999762E+00  0.1169964969E+00  0.4106302932E+00
  0.6499999762E+00  0.1170329005E+00  0.4189952463E+00
  0.6499999762E+00  0.1170708016E+00  0.4273993149E+00
  0.6499999762E+00  0.1171104014E+00  0.4358752072E+00
  0.6499999762E+00  0.1171516031E+00  0.4443917051E+00
  0.6499999762E+00  0.1171946004E+00  0.4529773444E+00
  0.6499999762E+00  0.1172394976E+00  0.4616390914E+00
  0.6499999762E+00  0.1172861978E+00  0.4703479260E+00
  0.6499999762E+00  0.1173349991E+00  0.4791472852E+00
  0.6499999762E+00  0.1173857972E+00  0.4880042374E+00
  0.6499999762E+00  0.1174388975E+00  0.4969558492E+00
  0.6499999762E+00  0.1174942032E+00  0.5059728399E+00
  0.6499999762E+00  0.1175519004E+00  0.5150700733E+00
  0.6499999762E+00  0.1176121011E+00  0.5242483318E+00
  0.6499999762E+00  0.1176747978E+00  0.5334908143E+00
  0.6499999762E+00  0.1177403033E+00  0.5428254977E+00
  0.6499999762E+00  0.1178086028E+00  0.5522317067E+00
  0.6499999762E+00  0.1178798974E+00  0.5617156997E+00
  0.6499999762E+00  0.1179542020E+00  0.5712646246E+00
  0.6499999762E+00  0.1180317029E+00  0.5808810890E+00
  0.6499999762E+00  0.1181124970E+00  0.5905604362E+00
  0.6499999762E+00  0.1181968972E+00  0.6003188714E+00
  0.6499999762E+00  0.1182847992E+00  0.6101264432E+00
  0.6499999762E+00  0.1183765978E+00  0.6200065091E+00
  0.6499999762E+00  0.1184723973E+00  0.6299519539E+00
  0.6499999762E+00  0.1185721979E+00  0.6399428099E+00
  0.6499999762E+00  0.1186764017E+00  0.6499981135E+00
  0.6499999762E+00  0.1187850013E+00  0.6601019949E+00
  0.6499999762E+00  0.1188983992E+00  0.6702747941E+00
  0.6499999762E+00  0.1190166026E+00  0.6804975122E+00
  0.6499999762E+00  0.1191399992E+00  0.6907849014E+00
  0.6499999762E+00  0.1192686036E+00  0.7011210173E+00
  0.6499999762E+00  0.1194028035E+00  0.7115177065E+00
  0.6499999762E+00  0.1195427999E+00  0.7219704986E+00
  0.6499999762E+00  0.1196888983E+00  0.7324824482E+00
  0.6499999762E+00  0.1198412031E+00  0.7430404425E+00
  0.6499999762E+00  0.1200001016E+00  0.7536526024E+00
  0.6499999762E+00  0.1201658994E+00  0.7643182576E+00
  0.6499999762E+00  0.1203389019E+00  0.7750364393E+00
  0.6499999762E+00  0.1205193028E+00  0.7857991755E+00
  0.6499999762E+00  0.1207074970E+00  0.7966072112E+00
  0.6499999762E+00  0.1209039018E+00  0.8074624836E+00
  0.6499999762E+00  0.1211087033E+00  0.8183527738E+00
  0.6499999762E+00  0.1213224977E+00  0.8292862773E+00
  0.6499999762E+00  0.1215455011E+00  0.8402492106E+00
  0.6499999762E+00  0.1217781976E+00  0.8512394130E+00
  0.6499999762E+00  0.1220211014E+00  0.8622520417E+00
  0.6499999762E+00  0.1222745031E+00  0.8732707798E+00
  0.6499999762E+00  0.1225389019E+00  0.8842843026E+00
  0.6499999762E+00  0.1228149012E+00  0.8952900022E+00
  0.6499999762E+00  0.1231029034E+00  0.9062965214E+00
  0.6499999762E+00  0.1234034970E+00  0.9173297137E+00
  0.6499999762E+00  0.1237171963E+00  0.9283740819E+00
  0.6499999762E+00  0.1240447015E+00  0.9393483400E+00
  0.6499999762E+00  0.1243864968E+00  0.9501013905E+00
  0.6499999762E+00  0.1247432977E+00  0.9604752809E+00
  0.6499999762E+00  0.1251157969E+00  0.9703385085E+00
  0.6499999762E+00  0.1255044937E+00  0.9796011448E+00
  0.6499999762E+00  0.1259101927E+00  0.9882340580E+00
  0.6499999762E+00  0.1263336986E+00  0.9962449223E+00
  0.6499999762E+00  0.1267755926E+00  0.1003651544E+01
  0.6499999762E+00  0.1272369027E+00  0.1010490060E+01
  0.6499999762E+00  0.1277181953E+00  0.1016765609E+01
  0.6499999762E+00  0.1282204986E+00  0.1022461876E+01
  0.6499999762E+00  0.1287447959E+00  0.1027565449E+01
  0.6499999762E+00  0.1292918026E+00  0.1032093093E+01
  0.6499999762E+00  0.1298626065E+00  0.1036121473E+01
  0.6499999762E+00  0.1304582059E+00  0.1039736420E+01
  0.6499999762E+00  0.1310797036E+00  0.1043022946E+01
  0.6499999762E+00  0.1317282021E+00  0.1046050638E+01
  0.6499999762E+00  0.1324048936E+00  0.1048890203E+01
  0.6499999762E+00  0.1331108958E+00  0.1051601395E+01
  0.6499999762E+00  0.1338475943E+00  0.1054237336E+01
  0.6499999762E+00  0.1346161962E+00  0.1056841910E+01
  0.6499999762E+00  0.1354182065E+00  0.1059456170E+01
  0.6499999762E+00  0.1362549067E+00  0.1062113345E+01
  0.6499999762E+00  0.1371279955E+00  0.1064841524E+01
  0.6499999762E+00  0.1380387992E+00  0.1067664847E+01
  0.6499999762E+00  0.1389891952E+00  0.1070604771E+01
  0.6499999762E+00  0.1399807930E+00  0.1073677242E+01
  0.6499999762E+00  0.1410153955E+00  0.1076896712E+01
  0.6499999762E+00  0.1420948058E+00  0.1080274135E+01
  0.6499999762E+00  0.1432210058E+00  0.1083819345E+01
  0.6499999762E+00  0.1443960965E+00  0.1087540239E+01
  0.6499999762E+00  0.1456221044E+00  0.1091443822E+01
  0.6499999762E+00  0.1469012052E+00  0.1095536426E+01
  0.6499999762E+00  0.1482359022E+00  0.1099826470E+01
  0.6499999762E+00  0.1496284008E+00  0.1104321107E+01
  0.6499999762E+00  0.1510812938E+00  0.1109028980E+01
  0.6499999762E+00  0.1525972933E+00  0.1113961935E+01
  0.6499999762E+00  0.1541790068E+00  0.1119129956E+01
  0.6499999762E+00  0.1558292955E+00  0.1124532744E+01
  0.6499999762E+00  0.1575511992E+00  0.1130155772E+01
  0.6499999762E+00  0.1593476981E+00  0.1136042997E+01
  0.6499999762E+00  0.1612222940E+00  0.1142355576E+01
  0.6499999762E+00  0.1631781012E+00  0.1149295047E+01
  0.6499999762E+00  0.1652188003E+00  0.1156895682E+01
  0.6499999762E+00  0.1673479974E+00  0.1164914966E+01
  0.6499999762E+00  0.1695697010E+00  0.1172934771E+01
  0.6499999762E+00  0.1718876958E+00  0.1180580705E+01
  0.6499999762E+00  0.1743061990E+00  0.1187629625E+01
  0.6499999762E+00  0.1768296957E+00  0.1194002256E+01
  0.6499999762E+00  0.1794627011E+00  0.1199675202E+01
  0.6499999762E+00  0.1822099984E+00  0.1204623953E+01
  0.6499999762E+00  0.1850764006E+00  0.1208794340E+01
  0.6499999762E+00  0.1880671978E+00  0.1212143004E+01
  0.6499999762E+00  0.1911877990E+00  0.1214680299E+01
  0.6499999762E+00  0.1944438070E+00  0.1216496378E+01
  0.6499999762E+00  0.1978410035E+00  0.1217736378E+01
  0.6499999762E+00  0.2013857067E+00  0.1218545958E+01
  0.6499999762E+00  0.2050842047E+00  0.1219021007E+01
  0.6499999762E+00  0.2089432031E+00  0.1219184995E+01
  0.6499999762E+00  0.2129696012E+00  0.1219033226E+01
  0.6499999762E+00  0.2171707004E+00  0.1218575984E+01
  0.6499999762E+00  0.2215541005E+00  0.1217870861E+01
  0.6499999762E+00  0.2261276990E+00  0.1216990873E+01
  0.6499999762E+00  0.2308997959E+00  0.1215995178E+01
  0.6499999762E+00  0.2358788997E+00  0.1214918271E+01
  0.6499999762E+00  0.2410741001E+00  0.1213769540E+01
  0.6499999762E+00  0.2464946955E+00  0.1212553382E+01
  0.6499999762E+00  0.2521505058E+00  0.1211270690E+01
  0.6499999762E+00  0.2580518126E+00  0.1209920645E+01
  0.6499999762E+00  0.2642090023E+00  0.1208506003E+01
  0.6499999762E+00  0.2706334889E+00  0.1207027435E+01
  0.6499999762E+00  0.2773366868E+00  0.1205484420E+01
  0.6499999762E+00  0.2843307853E+00  0.1203876212E+01
  0.6499999762E+00  0.2916283906E+00  0.1202200353E+01
  0.6499999762E+00  0.2992425859E+00  0.1200456470E+01
  0.6499999762E+00  0.3071871996E+00  0.1198651865E+01
  0.6499999762E+00  0.3154765964E+00  0.1196793765E+01
  0.6499999762E+00  0.3241255879E+00  0.1194879189E+01
  0.6499999762E+00  0.3331499100E+00  0.1192906052E+01
  0.6499999762E+00  0.3425656855E+00  0.1190879866E+01
  0.6499999762E+00  0.3523901999E+00  0.1188807040E+01
  0.6499999762E+00  0.3626408875E+00  0.1186684519E+01
  0.6499999762E+00  0.3733364046E+00  0.1184517071E+01
  0.6499999762E+00  0.3844959140E+00  0.1182313114E+01
  0.6499999762E+00  0.3961397111E+00  0.1180077046E+01
  0.6499999762E+00  0.4082886875E+00  0.1177811921E+01
  0.6499999762E+00  0.4209648073E+00  0.1175523475E+01
  0.6499999762E+00  0.4341908991E+00  0.1173217669E+01
  0.6499999762E+00  0.4479908943E+00  0.1170900911E+01
  0.6499999762E+00  0.4623895884E+00  0.1168579832E+01
  0.6499999762E+00  0.4774130881E+00  0.1166260764E+01
  0.6499999762E+00  0.4930885136E+00  0.1163951233E+01
  0.6499999762E+00  0.5094438791E+00  0.1161658466E+01
  0.6499999762E+00  0.5265089869E+00  0.1159390360E+01
  0.6499999762E+00  0.5443145037E+00  0.1157154366E+01
  0.6499999762E+00  0.5628924966E+00  0.1154958606E+01
  0.6499999762E+00  0.5822765231E+00  0.1152810529E+01
  0.6499999762E+00  0.6025015712E+00  0.1150717735E+01
  0.6499999762E+00  0.6236041188E+00  0.1148687229E+01
  0.6499999762E+00  0.6456223130E+00  0.1146725044E+01
  0.6499999762E+00  0.6685956120E+00  0.1144835874E+01
  0.6499999762E+00  0.6925656796E+00  0.1143024191E+01
  0.6499999762E+00  0.7175757289E+00  0.1141281351E+01
  0.6499999762E+00  0.7436707020E+00  0.1139595658E+01
  0.6499999762E+00  0.7708979249E+00  0.1137940586E+01
  0.6499999762E+00  0.7993062735E+00  0.1136580035E+01
  0.6499999762E+00  0.8289471269E+00  0.1135792360E+01
  0.6499999762E+00  0.8598734736E+00  0.1133284867E+01
  0.6499999762E+00  0.8921396732E+00  0.1131008714E+01
ZONE T="x/c=0.8"                                                                
  0.8000000119E+00  0.2460199967E-01 -0.1820692091E-04
  0.8000000119E+00  0.2461059950E-01 -0.5638538642E-03
  0.8000000119E+00  0.2461968921E-01 -0.1142585170E-02
  0.8000000119E+00  0.2462900989E-01 -0.1737575803E-02
  0.8000000119E+00  0.2463857085E-01 -0.2348783455E-02
  0.8000000119E+00  0.2464839071E-01 -0.2978039556E-02
  0.8000000119E+00  0.2465848066E-01 -0.3625756071E-02
  0.8000000119E+00  0.2466885932E-01 -0.4291796940E-02
  0.8000000119E+00  0.2467953973E-01 -0.4981122329E-02
  0.8000000119E+00  0.2469055913E-01 -0.5693596904E-02
  0.8000000119E+00  0.2470193058E-01 -0.6430457579E-02
  0.8000000119E+00  0.2471365966E-01 -0.7190259639E-02
  0.8000000119E+00  0.2472578920E-01 -0.7980623050E-02
  0.8000000119E+00  0.2473831922E-01 -0.8798153140E-02
  0.8000000119E+00  0.2475129999E-01 -0.9646593826E-02
  0.8000000119E+00  0.2476472966E-01 -0.1052528387E-01
  0.8000000119E+00  0.2477863990E-01 -0.1143897884E-01
  0.8000000119E+00  0.2479306050E-01 -0.1238786150E-01
  0.8000000119E+00  0.2480801009E-01 -0.1337178750E-01
  0.8000000119E+00  0.2482352033E-01 -0.1439488144E-01