# CFL3D results for NASA wall-mounted hump, 817 x 217 grid, no plenum, SA model
VARIABLES = "x","cf"
zone, t="CFL3D"
 -0.619334745E+01  0.561348908E-02
 -0.600935411E+01  0.376124424E-02
 -0.583668375E+01  0.374308042E-02
 -0.567417955E+01  0.361931766E-02
 -0.552083397E+01  0.351176714E-02
 -0.537576628E+01  0.343140797E-02
 -0.523820162E+01  0.336874044E-02
 -0.510745764E+01  0.331741641E-02
 -0.498292923E+01  0.327402749E-02
 -0.486407709E+01  0.323658925E-02
 -0.475042200E+01  0.320380321E-02
 -0.464153337E+01  0.317476178E-02
 -0.453702450E+01  0.314879813E-02
 -0.443654728E+01  0.312540447E-02
 -0.433978605E+01  0.310418499E-02
 -0.424645615E+01  0.308482279E-02
 -0.415629768E+01  0.306706177E-02
 -0.406907320E+01  0.305069122E-02
 -0.398456693E+01  0.303553604E-02
 -0.390258050E+01  0.302144978E-02
 -0.382293153E+01  0.300830812E-02
 -0.374545217E+01  0.299600558E-02
 -0.366998768E+01  0.298445160E-02
 -0.359639406E+01  0.297356816E-02
 -0.352453852E+01  0.296328729E-02
 -0.345429730E+01  0.295355031E-02
 -0.338555455E+01  0.294430531E-02
 -0.331820297E+01  0.293550687E-02
 -0.325214076E+01  0.292711449E-02
 -0.318727350E+01  0.291909277E-02
 -0.312351131E+01  0.291140960E-02
 -0.306077003E+01  0.290403655E-02
 -0.299896955E+01  0.289694825E-02
 -0.293803430E+01  0.289012166E-02
 -0.287789154E+01  0.288353558E-02
 -0.281847286E+01  0.287717138E-02
 -0.275971198E+01  0.287101185E-02
 -0.270154548E+01  0.286504114E-02
 -0.264391279E+01  0.285924529E-02
 -0.258675456E+01  0.285361055E-02
 -0.253001380E+01  0.284812483E-02
 -0.247363496E+01  0.284277694E-02
 -0.241756415E+01  0.283755618E-02
 -0.236174798E+01  0.283245230E-02
 -0.230613446E+01  0.282745622E-02
 -0.225067258E+01  0.282255956E-02
 -0.219531107E+01  0.281775580E-02
 -0.214000010E+01  0.281303795E-02
 -0.208462691E+01  0.280838623E-02
 -0.202902246E+01  0.280378503E-02
 -0.197327018E+01  0.279924087E-02
 -0.191745472E+01  0.279475865E-02
 -0.186166084E+01  0.279033720E-02
 -0.180597353E+01  0.278597744E-02
 -0.175047672E+01  0.278167939E-02
 -0.169525337E+01  0.277744140E-02
 -0.164038503E+01  0.277326093E-02
 -0.158595085E+01  0.276913331E-02
 -0.153202736E+01  0.276505179E-02
 -0.147868836E+01  0.276100682E-02
 -0.142600429E+01  0.275698537E-02
 -0.137404156E+01  0.275297090E-02
 -0.132286310E+01  0.274894154E-02
 -0.127252734E+01  0.274486910E-02
 -0.122308826E+01  0.274071912E-02
 -0.117459524E+01  0.273644831E-02
 -0.112709320E+01  0.273200474E-02
 -0.108062208E+01  0.272732531E-02
 -0.103521693E+01  0.272233575E-02
 -0.990908384E+00  0.271694968E-02
 -0.947722137E+00  0.271106791E-02
 -0.905679286E+00  0.270457892E-02
 -0.864796400E+00  0.269735861E-02
 -0.825085878E+00  0.268927217E-02
 -0.786555827E+00  0.268017408E-02
 -0.749210417E+00  0.266991206E-02
 -0.713050067E+00  0.265832711E-02
 -0.678071737E+00  0.264525763E-02
 -0.644268990E+00  0.263054064E-02
 -0.611632407E+00  0.261401501E-02
 -0.580149889E+00  0.259552361E-02
 -0.549806595E+00  0.257491530E-02
 -0.520585537E+00  0.255204621E-02
 -0.492467672E+00  0.252678199E-02
 -0.465432048E+00  0.249899831E-02
 -0.439456165E+00  0.246858201E-02
 -0.414516211E+00  0.243543158E-02
 -0.390587121E+00  0.239945762E-02
 -0.367642909E+00  0.236058305E-02
 -0.345656812E+00  0.231874338E-02
 -0.324601471E+00  0.227388716E-02
 -0.304449022E+00  0.222597597E-02
 -0.285171390E+00  0.217498350E-02
 -0.266740263E+00  0.212089741E-02
 -0.249127343E+00  0.206371699E-02
 -0.232304394E+00  0.200345484E-02
 -0.216243356E+00  0.194013491E-02
 -0.200916439E+00  0.187379285E-02
 -0.186296210E+00  0.180447439E-02
 -0.172355637E+00  0.173223426E-02
 -0.159068182E+00  0.165713544E-02
 -0.146407843E+00  0.157924893E-02
 -0.134349182E+00  0.149865530E-02
 -0.122867383E+00  0.141544838E-02
 -0.111938283E+00  0.132973772E-02
 -0.101538368E+00  0.124164438E-02
 -0.916448236E-01  0.115128676E-02
 -0.822355375E-01  0.105874019E-02
 -0.732891038E-01  0.964015664E-03
 -0.647848397E-01  0.867002178E-03
 -0.567027517E-01  0.767839374E-03
 -0.490235835E-01  0.666774169E-03
 -0.417287759E-01  0.564011221E-03
 -0.348004699E-01  0.461519405E-03
 -0.282214936E-01  0.361406157E-03
 -0.219753571E-01  0.269993121E-03
 -0.160462335E-01  0.182996882E-03
 -0.104189422E-01  0.128192216E-03
 -0.507893739E-02 -0.283176032E-04
 -0.122914907E-04 -0.141739307E-03
  0.497128349E-02  0.263997936E-04
  0.998154841E-02  0.154656896E-03
  0.149957435E-01  0.217261404E-03
  0.199981220E-01  0.343908410E-03
  0.249761958E-01  0.475347362E-03
  0.299211107E-01  0.631278497E-03
  0.348279700E-01  0.806942757E-03
  0.396955051E-01  0.100648997E-02
  0.445257090E-01  0.122968329E-02
  0.493250340E-01  0.147391844E-02
  0.541010313E-01  0.173971802E-02
  0.588617660E-01  0.203037634E-02
  0.636180714E-01  0.233895518E-02
  0.683841035E-01  0.265843305E-02
  0.731693283E-01  0.299505750E-02
  0.779847056E-01  0.334176118E-02
  0.828438774E-01  0.369081250E-02
  0.877538100E-01  0.404698029E-02
  0.927271768E-01  0.437418465E-02
  0.977799892E-01  0.464385375E-02
  0.102917023E+00  0.483861426E-02
  0.108149432E+00  0.494797109E-02
  0.113467485E+00  0.502620917E-02
  0.118862294E+00  0.511216605E-02
  0.124323472E+00  0.520704035E-02
  0.129844084E+00  0.531135406E-02
  0.135417029E+00  0.541679515E-02
  0.141038105E+00  0.553339813E-02
  0.146698698E+00  0.567732146E-02
  0.152396247E+00  0.584347174E-02
  0.158126146E+00  0.602488173E-02
  0.163889363E+00  0.618267013E-02
  0.169688642E+00  0.629342627E-02
  0.175522014E+00  0.636779517E-02
  0.181389764E+00  0.640935590E-02
  0.187287062E+00  0.644140318E-02
  0.193210572E+00  0.647181785E-02
  0.199156567E+00  0.649593631E-02
  0.205121696E+00  0.651569432E-02
  0.211102754E+00  0.652749790E-02
  0.217096850E+00  0.653199619E-02
  0.223100647E+00  0.653256150E-02
  0.229111239E+00  0.652999338E-02
  0.235125527E+00  0.652802223E-02
  0.241140470E+00  0.652794540E-02
  0.247153491E+00  0.652895169E-02
  0.253161699E+00  0.653191656E-02
  0.259162903E+00  0.653499179E-02
  0.265154481E+00  0.653783744E-02
  0.271134406E+00  0.654053455E-02
  0.277100235E+00  0.654284609E-02
  0.283050030E+00  0.654526986E-02
  0.288981408E+00  0.654833065E-02
  0.294892609E+00  0.655238237E-02
  0.300781280E+00  0.655979384E-02
  0.306645721E+00  0.656959834E-02
  0.312483907E+00  0.658225641E-02
  0.318294078E+00  0.659755198E-02
  0.324074626E+00  0.661224546E-02
  0.329823911E+00  0.662641972E-02
  0.335540354E+00  0.663955137E-02
  0.341222495E+00  0.665100245E-02
  0.346868813E+00  0.666162837E-02
  0.352477819E+00  0.667169364E-02
  0.358048141E+00  0.668078708E-02
  0.363578379E+00  0.668948935E-02
  0.369067252E+00  0.669725798E-02
  0.374513447E+00  0.670443336E-02
  0.379915804E+00  0.671056239E-02
  0.385273069E+00  0.671557058E-02
  0.390584201E+00  0.671917666E-02
  0.395848095E+00  0.672229286E-02
  0.401063681E+00  0.672573969E-02
  0.406230032E+00  0.672844797E-02
  0.411346197E+00  0.673088292E-02
  0.416411340E+00  0.673254905E-02
  0.421424568E+00  0.673444290E-02
  0.426385194E+00  0.673584454E-02
  0.431292474E+00  0.673560146E-02
  0.436145753E+00  0.673339562E-02
  0.440944403E+00  0.673076231E-02
  0.445687830E+00  0.672798837E-02
  0.450375557E+00  0.672574947E-02
  0.455007046E+00  0.672668358E-02
  0.459581882E+00  0.672649220E-02
  0.464099735E+00  0.672176946E-02
  0.468560249E+00  0.671390025E-02
  0.472963125E+00  0.670232251E-02
  0.477308184E+00  0.668752659E-02
  0.481595099E+00  0.667487411E-02
  0.485823750E+00  0.666357623E-02
  0.489994019E+00  0.665384298E-02
  0.494105756E+00  0.664646830E-02
  0.498158962E+00  0.663871085E-02
  0.502153635E+00  0.663075270E-02
  0.506089807E+00  0.662141293E-02
  0.509967566E+00  0.660990877E-02
  0.513786912E+00  0.659663975E-02
  0.517548084E+00  0.658129388E-02
  0.521251202E+00  0.656522531E-02
  0.524896443E+00  0.655025057E-02
  0.528484046E+00  0.653637107E-02
  0.532014310E+00  0.652569532E-02
  0.535487473E+00  0.651585776E-02
  0.538903832E+00  0.650466047E-02
  0.542263746E+00  0.649103383E-02
  0.545567513E+00  0.647161622E-02
  0.548815489E+00  0.644886959E-02
  0.552008152E+00  0.642481353E-02
  0.555145800E+00  0.640183222E-02
  0.558229029E+00  0.638419343E-02
  0.561258256E+00  0.636992138E-02
  0.564233899E+00  0.635833293E-02
  0.567156494E+00  0.634515611E-02
  0.570026517E+00  0.632688589E-02
  0.572844386E+00  0.630203635E-02
  0.575610697E+00  0.627026707E-02
  0.578325927E+00  0.623472920E-02
  0.580990613E+00  0.619668793E-02
  0.583605409E+00  0.616009487E-02
  0.586170793E+00  0.612349156E-02
  0.588687420E+00  0.608831644E-02
  0.591155887E+00  0.605311012E-02
  0.593576789E+00  0.601596665E-02
  0.595950723E+00  0.598033983E-02
  0.598278284E+00  0.594285596E-02
  0.600560069E+00  0.590447243E-02
  0.602796793E+00  0.586660719E-02
  0.604988992E+00  0.582645275E-02
  0.607137322E+00  0.578653021E-02
  0.609242380E+00  0.574845774E-02
  0.611304820E+00  0.570937851E-02
  0.613325298E+00  0.567050930E-02
  0.615304410E+00  0.563396420E-02
  0.617242754E+00  0.559610222E-02
  0.619140923E+00  0.555285579E-02
  0.620999515E+00  0.550200464E-02
  0.622819126E+00  0.544331642E-02
  0.624600232E+00  0.537873013E-02
  0.626343548E+00  0.530841481E-02
  0.628049612E+00  0.523086637E-02
  0.629719019E+00  0.514757354E-02
  0.631352425E+00  0.506467046E-02
  0.632950485E+00  0.498567615E-02
  0.634513855E+00  0.490952889E-02
  0.636043131E+00  0.483828643E-02
  0.637538970E+00  0.477619143E-02
  0.639002085E+00  0.472752750E-02
  0.640433073E+00  0.469010230E-02
  0.641832471E+00  0.466045924E-02
  0.643200815E+00  0.462952815E-02
  0.644538224E+00  0.457340479E-02
  0.645845115E+00  0.448051747E-02
  0.647121549E+00  0.435251510E-02
  0.648367941E+00  0.418766728E-02
  0.649584413E+00  0.397820305E-02
  0.650771260E+00  0.372815458E-02
  0.651928663E+00  0.342008169E-02
  0.653056920E+00  0.315673952E-02
  0.654156983E+00  0.279482035E-02
  0.655242622E+00  0.219237129E-02
  0.656325221E+00  0.172716018E-02
  0.657404840E+00  0.150884537E-02
  0.658481359E+00  0.120308681E-02
  0.659547567E+00  0.636290119E-03
  0.660606802E+00  0.960954349E-04
  0.661658406E+00 -0.315137673E-03
  0.662701786E+00 -0.696766481E-03
  0.663736224E+00 -0.997975701E-03
  0.664761186E+00 -0.122094410E-02
  0.665775657E+00 -0.137018086E-02
  0.666779220E+00 -0.145038287E-02
  0.667771876E+00 -0.146501279E-02
  0.668754280E+00 -0.142363110E-02
  0.669727147E+00 -0.134312885E-02
  0.670690954E+00 -0.124336826E-02
  0.671646535E+00 -0.113402295E-02
  0.672594488E+00 -0.102382002E-02
  0.673535168E+00 -0.921142462E-03
  0.674468696E+00 -0.829140306E-03
  0.675395608E+00 -0.748227991E-03
  0.676316142E+00 -0.677961390E-03
  0.677230895E+00 -0.616974488E-03
  0.678139865E+00 -0.565086550E-03
  0.679043770E+00 -0.520306407E-03
  0.679942846E+00 -0.481567637E-03
  0.680837333E+00 -0.448793435E-03
  0.681727588E+00 -0.420372904E-03
  0.682614207E+00 -0.395310868E-03
  0.683497488E+00 -0.373542018E-03
  0.684377670E+00 -0.354572549E-03
  0.685255229E+00 -0.337570411E-03
  0.686130524E+00 -0.322267966E-03
  0.687003851E+00 -0.308080198E-03
  0.687875867E+00 -0.295097969E-03
  0.688746572E+00 -0.283481117E-03
  0.689616144E+00 -0.272844161E-03
  0.690484703E+00 -0.262962218E-03
  0.691352189E+00 -0.253373786E-03
  0.692219019E+00 -0.243952250E-03
  0.693085074E+00 -0.234684543E-03
  0.693950593E+00 -0.224937598E-03
  0.694815814E+00 -0.214439977E-03
  0.695681334E+00 -0.203630087E-03
  0.696547449E+00 -0.192631400E-03
  0.697414577E+00 -0.181617565E-03
  0.698283255E+00 -0.171093357E-03
  0.699153543E+00 -0.161273114E-03
  0.700025499E+00 -0.152424909E-03
  0.700899184E+00 -0.144412348E-03
  0.701774120E+00 -0.136956398E-03
  0.702650547E+00 -0.130474233E-03
  0.703527868E+00 -0.124662838E-03
  0.704405904E+00 -0.118955759E-03
  0.705284655E+00 -0.113670547E-03
  0.706163943E+00 -0.108875094E-03
  0.707043529E+00 -0.104251456E-03
  0.707923472E+00 -0.998158284E-04
  0.708803713E+00 -0.952467162E-04
  0.709684253E+00 -0.901687963E-04
  0.710565805E+00 -0.853275051E-04
  0.711448431E+00 -0.810104975E-04
  0.712332129E+00 -0.770051047E-04
  0.713217020E+00 -0.730401298E-04
  0.714103103E+00 -0.685664199E-04
  0.714990973E+00 -0.642462692E-04
  0.715881050E+00 -0.607804832E-04
  0.716773152E+00 -0.577222017E-04
  0.717667341E+00 -0.547408890E-04
  0.718563795E+00 -0.518342458E-04
  0.719462693E+00 -0.492274448E-04
  0.720364273E+00 -0.472748870E-04
  0.721268594E+00 -0.460200499E-04
  0.722175479E+00 -0.453525718E-04
  0.723084807E+00 -0.450254011E-04
  0.723996639E+00 -0.450785155E-04
  0.724910975E+00 -0.458153481E-04
  0.725827634E+00 -0.469799888E-04
  0.726746559E+00 -0.483273034E-04
  0.727667809E+00 -0.500057649E-04
  0.728591383E+00 -0.521008333E-04
  0.729517221E+00 -0.546180236E-04
  0.730445385E+00 -0.576585444E-04
  0.731375813E+00 -0.610961361E-04
  0.732308269E+00 -0.646842745E-04
  0.733242869E+00 -0.681250458E-04
  0.734179676E+00 -0.710019012E-04
  0.735119045E+00 -0.741220138E-04
  0.736061215E+00 -0.782874631E-04
  0.737005889E+00 -0.828864795E-04
  0.737953007E+00 -0.875089900E-04
  0.738902628E+00 -0.916960271E-04
  0.739854872E+00 -0.954699062E-04
  0.740810037E+00 -0.100075660E-03
  0.741768062E+00 -0.105505409E-03
  0.742728829E+00 -0.110926536E-03
  0.743692279E+00 -0.116311567E-03
  0.744658470E+00 -0.121663776E-03
  0.745627463E+00 -0.127160660E-03
  0.746599317E+00 -0.133284775E-03
  0.747573972E+00 -0.139676747E-03
  0.748551250E+00 -0.145553931E-03
  0.749531388E+00 -0.151356071E-03
  0.750514388E+00 -0.157862334E-03
  0.751500249E+00 -0.164760684E-03
  0.752488792E+00 -0.171598818E-03
  0.753480077E+00 -0.178352711E-03
  0.754474044E+00 -0.184678196E-03
  0.755470872E+00 -0.190856794E-03
  0.756470621E+00 -0.198033973E-03
  0.757473111E+00 -0.205979813E-03
  0.758478165E+00 -0.213231950E-03
  0.759485900E+00 -0.219668800E-03
  0.760496378E+00 -0.226183241E-03
  0.761509657E+00 -0.232971972E-03
  0.762525737E+00 -0.240100795E-03
  0.763544619E+00 -0.247686723E-03
  0.764566064E+00 -0.255373685E-03
  0.765590131E+00 -0.262717513E-03
  0.766616762E+00 -0.269824348E-03
  0.767646015E+00 -0.276957435E-03
  0.768677890E+00 -0.284049340E-03
  0.769712269E+00 -0.290713127E-03
  0.770749271E+00 -0.296911196E-03
  0.771788955E+00 -0.303398585E-03
  0.772831321E+00 -0.310575386E-03
  0.773876190E+00 -0.318138947E-03
  0.774923503E+00 -0.325603207E-03
  0.775973260E+00 -0.332973956E-03
  0.777025402E+00 -0.340337894E-03
  0.778079867E+00 -0.347588502E-03
  0.779136717E+00 -0.354883174E-03
  0.780195892E+00 -0.362146966E-03
  0.781257331E+00 -0.369548186E-03
  0.782321036E+00 -0.377152814E-03
  0.783386946E+00 -0.384924992E-03
  0.784455061E+00 -0.392973452E-03
  0.785525203E+00 -0.401035184E-03
  0.786597431E+00 -0.409329892E-03
  0.787671626E+00 -0.417740055E-03
  0.788747847E+00 -0.426142593E-03
  0.789825976E+00 -0.434909976E-03
  0.790905952E+00 -0.443824247E-03
  0.791987777E+00 -0.452727341E-03
  0.793071330E+00 -0.461140764E-03
  0.794156611E+00 -0.468997488E-03
  0.795243680E+00 -0.476924033E-03
  0.796332538E+00 -0.484816119E-03
  0.797423065E+00 -0.492794497E-03
  0.798515260E+00 -0.500818074E-03
  0.799609125E+00 -0.508753699E-03
  0.800704658E+00 -0.516889209E-03
  0.801801741E+00 -0.524681411E-03
  0.802900374E+00 -0.532418198E-03
  0.804000556E+00 -0.540693116E-03
  0.805102229E+00 -0.549187651E-03
  0.806205392E+00 -0.558050408E-03
  0.807309926E+00 -0.566455594E-03
  0.808415830E+00 -0.574370206E-03
  0.809523165E+00 -0.583276269E-03
  0.810631871E+00 -0.592866389E-03
  0.811741769E+00 -0.602866581E-03
  0.812852919E+00 -0.613144017E-03
  0.813965261E+00 -0.622920925E-03
  0.815078676E+00 -0.632480485E-03
  0.816193223E+00 -0.641334627E-03
  0.817308903E+00 -0.649209891E-03
  0.818425775E+00 -0.657414552E-03
  0.819543719E+00 -0.666032371E-03
  0.820662796E+00 -0.674916897E-03
  0.821782947E+00 -0.684085710E-03
  0.822904050E+00 -0.692656147E-03
  0.824026227E+00 -0.701105397E-03
  0.825149417E+00 -0.709627871E-03
  0.826273561E+00 -0.717371528E-03
  0.827398658E+00 -0.725467980E-03
  0.828524828E+00 -0.734512694E-03
  0.829651833E+00 -0.744025398E-03
  0.830779791E+00 -0.753879780E-03
  0.831908524E+00 -0.762299984E-03
  0.833038092E+00 -0.769428152E-03
  0.834168613E+00 -0.777804584E-03
  0.835299969E+00 -0.787355821E-03
  0.836432159E+00 -0.797628192E-03
  0.837565124E+00 -0.808176235E-03
  0.838698745E+00 -0.817036722E-03
  0.839833081E+00 -0.825306168E-03
  0.840968251E+00 -0.835098035E-03
  0.842104077E+00 -0.845646020E-03
  0.843240619E+00 -0.856532191E-03
  0.844377756E+00 -0.866870629E-03
  0.845515549E+00 -0.875389378E-03
  0.846653998E+00 -0.883726345E-03
  0.847793102E+00 -0.893063669E-03
  0.848932803E+00 -0.902753905E-03
  0.850073159E+00 -0.912727788E-03
  0.851214111E+00 -0.921866507E-03
  0.852355599E+00 -0.929685950E-03
  0.853497744E+00 -0.937899633E-03
  0.854640484E+00 -0.946573564E-03
  0.855783820E+00 -0.955244817E-03
  0.856927752E+00 -0.964441395E-03
  0.858072221E+00 -0.973085524E-03
  0.859217227E+00 -0.981024350E-03
  0.860362828E+00 -0.989532447E-03
  0.861508965E+00 -0.997653813E-03
  0.862655699E+00 -0.100532232E-02
  0.863802910E+00 -0.101389352E-02
  0.864950716E+00 -0.102237263E-02
  0.866099000E+00 -0.103069237E-02
  0.867247820E+00 -0.103971746E-02
  0.868397176E+00 -0.104780111E-02
  0.869546950E+00 -0.105529360E-02
  0.870697320E+00 -0.106403325E-02
  0.871848166E+00 -0.107279816E-02
  0.872999489E+00 -0.108150300E-02
  0.874151289E+00 -0.109101762E-02
  0.875303566E+00 -0.109976216E-02
  0.876456261E+00 -0.110794150E-02
  0.877609432E+00 -0.111672829E-02
  0.878763080E+00 -0.112487341E-02
  0.879917145E+00 -0.113265205E-02
  0.881071687E+00 -0.114125537E-02
  0.882226706E+00 -0.114971772E-02
  0.883382142E+00 -0.115793163E-02
  0.884538054E+00 -0.116643717E-02
  0.885694385E+00 -0.117449497E-02
  0.886851132E+00 -0.118190073E-02
  0.888008356E+00 -0.118906400E-02
  0.889165998E+00 -0.119598547E-02
  0.890324116E+00 -0.120250951E-02
  0.891482651E+00 -0.120883062E-02
  0.892641723E+00 -0.121538085E-02
  0.893801212E+00 -0.122192595E-02
  0.894961119E+00 -0.122808549E-02
  0.896121562E+00 -0.123408914E-02
  0.897282422E+00 -0.124005461E-02
  0.898443758E+00 -0.124599214E-02
  0.899605572E+00 -0.125206658E-02
  0.900767863E+00 -0.125836930E-02
  0.901930630E+00 -0.126507576E-02
  0.903093815E+00 -0.127219548E-02
  0.904257476E+00 -0.127903454E-02
  0.905421555E+00 -0.128548802E-02
  0.906586170E+00 -0.129209494E-02
  0.907751143E+00 -0.129770627E-02
  0.908916652E+00 -0.130235869E-02
  0.910082579E+00 -0.130776770E-02
  0.911249042E+00 -0.131239905E-02
  0.912415922E+00 -0.131593563E-02
  0.913583338E+00 -0.132056931E-02
  0.914751232E+00 -0.132449425E-02
  0.915919602E+00 -0.132704724E-02
  0.917088509E+00 -0.133033318E-02
  0.918257892E+00 -0.133290538E-02
  0.919427812E+00 -0.133476930E-02
  0.920598269E+00 -0.133784337E-02
  0.921769202E+00 -0.134052499E-02
  0.922940671E+00 -0.134289684E-02
  0.924112678E+00 -0.134621933E-02
  0.925285161E+00 -0.134852366E-02
  0.926458120E+00 -0.135002274E-02
  0.927631676E+00 -0.135175243E-02
  0.928805709E+00 -0.135240634E-02
  0.929980278E+00 -0.135343848E-02
  0.931155384E+00 -0.135570078E-02
  0.932331026E+00 -0.135709404E-02
  0.933507144E+00 -0.135836762E-02
  0.934683740E+00 -0.135995634E-02
  0.935860872E+00 -0.136024377E-02
  0.937038541E+00 -0.136015634E-02
  0.938216686E+00 -0.136028533E-02
  0.939395308E+00 -0.136027741E-02
  0.940574467E+00 -0.136153749E-02
  0.941754103E+00 -0.136385369E-02
  0.942934155E+00 -0.136552635E-02
  0.944114685E+00 -0.136644032E-02
  0.945295691E+00 -0.136697409E-02
  0.946477175E+00 -0.136759004E-02
  0.947659075E+00 -0.136886258E-02
  0.948841393E+00 -0.137049076E-02
  0.950024188E+00 -0.137212302E-02
  0.951207399E+00 -0.137390173E-02
  0.952390969E+00 -0.137561478E-02
  0.953575015E+00 -0.137682143E-02
  0.954759419E+00 -0.137759023E-02
  0.955944180E+00 -0.137867266E-02
  0.957129359E+00 -0.138082542E-02
  0.958314955E+00 -0.138373219E-02
  0.959500909E+00 -0.138745212E-02
  0.960687160E+00 -0.139308907E-02
  0.961873829E+00 -0.139925082E-02
  0.963060856E+00 -0.140612328E-02
  0.964248240E+00 -0.141651696E-02
  0.965435982E+00 -0.142732437E-02
  0.966624022E+00 -0.143715949E-02
  0.967812419E+00 -0.144896389E-02
  0.969001174E+00 -0.146016688E-02
  0.970190287E+00 -0.146846520E-02
  0.971379697E+00 -0.147550018E-02
  0.972569466E+00 -0.148154271E-02
  0.973759592E+00 -0.148572621E-02
  0.974950075E+00 -0.148864661E-02
  0.976140916E+00 -0.149111100E-02
  0.977332056E+00 -0.149257551E-02
  0.978523612E+00 -0.149340869E-02
  0.979715466E+00 -0.149549241E-02
  0.980907738E+00 -0.149845262E-02
  0.982100308E+00 -0.150141912E-02
  0.983293235E+00 -0.150608656E-02
  0.984486580E+00 -0.151177135E-02
  0.985680223E+00 -0.151715812E-02
  0.986874223E+00 -0.152387470E-02
  0.988068581E+00 -0.153034693E-02
  0.989263296E+00 -0.153239409E-02
  0.990458369E+00 -0.153246440E-02
  0.991653800E+00 -0.152982853E-02
  0.992849588E+00 -0.151905476E-02
  0.994045734E+00 -0.150498014E-02
  0.995242298E+00 -0.148916303E-02
  0.996439219E+00 -0.146870886E-02
  0.997636557E+00 -0.145013887E-02
  0.998834252E+00 -0.143557403E-02
  0.100003242E+01 -0.142972183E-02
  0.100123107E+01 -0.143716554E-02
  0.100243020E+01 -0.144555629E-02
  0.100363064E+01 -0.144968776E-02
  0.100483286E+01 -0.145306415E-02
  0.100603735E+01 -0.145559688E-02
  0.100724494E+01 -0.145727547E-02
  0.100845599E+01 -0.145801017E-02
  0.100967121E+01 -0.145788118E-02
  0.101089132E+01 -0.145700504E-02
  0.101211667E+01 -0.145552296E-02
  0.101334798E+01 -0.145356124E-02
  0.101458597E+01 -0.145122060E-02
  0.101583099E+01 -0.144857203E-02
  0.101708400E+01 -0.144566153E-02
  0.101834536E+01 -0.144251599E-02
  0.101961565E+01 -0.143915066E-02
  0.102089572E+01 -0.143557368E-02
  0.102218616E+01 -0.143178971E-02
  0.102348745E+01 -0.142780226E-02
  0.102480042E+01 -0.142361422E-02
  0.102612555E+01 -0.141922757E-02
  0.102746356E+01 -0.141464442E-02
  0.102881515E+01 -0.140986592E-02
  0.103018093E+01 -0.140489242E-02
  0.103156161E+01 -0.139972346E-02
  0.103295791E+01 -0.139435811E-02
  0.103437042E+01 -0.138879463E-02
  0.103579998E+01 -0.138303032E-02
  0.103724718E+01 -0.137706252E-02
  0.103871274E+01 -0.137088774E-02
  0.104019737E+01 -0.136450224E-02
  0.104170191E+01 -0.135790207E-02
  0.104322696E+01 -0.135108293E-02
  0.104477346E+01 -0.134404039E-02
  0.104634202E+01 -0.133676943E-02
  0.104793334E+01 -0.132926507E-02
  0.104954851E+01 -0.132152182E-02
  0.105118799E+01 -0.131353445E-02
  0.105285287E+01 -0.130529713E-02
  0.105454373E+01 -0.129680417E-02
  0.105626166E+01 -0.128804997E-02
  0.105800724E+01 -0.127902837E-02
  0.105978155E+01 -0.126973330E-02
  0.106158531E+01 -0.126015872E-02
  0.106341946E+01 -0.125029800E-02
  0.106528509E+01 -0.124014483E-02
  0.106718278E+01 -0.122969295E-02
  0.106911373E+01 -0.121893571E-02
  0.107107878E+01 -0.120786903E-02
  0.107307887E+01 -0.119648664E-02
  0.107511520E+01 -0.118479412E-02
  0.107718849E+01 -0.117278856E-02
  0.107929993E+01 -0.116050581E-02
  0.108145058E+01 -0.114797254E-02
  0.108364141E+01 -0.113502808E-02
  0.108587360E+01 -0.112159806E-02
  0.108814812E+01 -0.110774022E-02
  0.109046614E+01 -0.109344174E-02
  0.109282899E+01 -0.107872661E-02
  0.109523761E+01 -0.106357818E-02
  0.109769320E+01 -0.104797818E-02
  0.110019708E+01 -0.103195163E-02
  0.110275042E+01 -0.101547397E-02
  0.110535455E+01 -0.998539850E-03
  0.110801077E+01 -0.981154735E-03
  0.111072028E+01 -0.963303552E-03
  0.111348438E+01 -0.944985892E-03
  0.111630464E+01 -0.926196633E-03
  0.111918235E+01 -0.906926522E-03
  0.112211895E+01 -0.887184229E-03
  0.112511575E+01 -0.866966788E-03
  0.112817442E+01 -0.846269540E-03
  0.113129640E+01 -0.825092779E-03
  0.113448322E+01 -0.803458272E-03
  0.113773644E+01 -0.781365961E-03
  0.114105761E+01 -0.758905313E-03
  0.114444864E+01 -0.736272428E-03
  0.114791083E+01 -0.713283720E-03
  0.115144622E+01 -0.689680688E-03
  0.115505636E+01 -0.665578817E-03
  0.115874314E+01 -0.641052960E-03
  0.116250825E+01 -0.616087345E-03
  0.116635370E+01 -0.590699841E-03
  0.117028129E+01 -0.564896094E-03
  0.117429292E+01 -0.538687513E-03
  0.117839074E+01 -0.512084691E-03
  0.118257654E+01 -0.485100172E-03
  0.118685269E+01 -0.457747548E-03
  0.119122100E+01 -0.430041982E-03
  0.119568384E+01 -0.401999918E-03
  0.120024335E+01 -0.373639195E-03
  0.120490181E+01 -0.344978849E-03
  0.120966136E+01 -0.316039164E-03
  0.121452451E+01 -0.286841678E-03
  0.121949375E+01 -0.257409236E-03
  0.122457123E+01 -0.227766242E-03
  0.122975981E+01 -0.197938862E-03
  0.123506176E+01 -0.167955193E-03
  0.124047983E+01 -0.137845418E-03
  0.124601674E+01 -0.107641878E-03
  0.125167513E+01 -0.773788997E-04
  0.125745785E+01 -0.470924097E-04
  0.126336777E+01 -0.168195093E-04
  0.126940787E+01  0.134020684E-04
  0.127558088E+01  0.435344409E-04
  0.128189015E+01  0.735400754E-04
  0.128833866E+01  0.103382401E-03
  0.129492950E+01  0.133026435E-03
  0.130166614E+01  0.162439537E-03
  0.130855179E+01  0.191592160E-03
  0.131558979E+01  0.220458533E-03
  0.132278371E+01  0.249017321E-03
  0.133013713E+01  0.277252228E-03
  0.133765364E+01  0.305152993E-03
  0.134533691E+01  0.332716707E-03
  0.135319078E+01  0.359949976E-03
  0.136121905E+01  0.386872445E-03
  0.136942589E+01  0.413521338E-03
  0.137781513E+01  0.439956581E-03
  0.138639104E+01  0.466264435E-03
  0.139515781E+01  0.492557243E-03
  0.140411973E+01  0.518965826E-03
  0.141328144E+01  0.545623829E-03
  0.142264724E+01  0.572646095E-03
  0.143222177E+01  0.600106723E-03
  0.144200981E+01  0.628025038E-03
  0.145201623E+01  0.656364777E-03
  0.146224606E+01  0.685046602E-03
  0.147270417E+01  0.713968708E-03
  0.148339570E+01  0.743027951E-03
  0.149432611E+01  0.772134052E-03
  0.150550079E+01  0.801215530E-03
  0.151692510E+01  0.830218371E-03
  0.152860475E+01  0.859101594E-03
  0.154054558E+01  0.887832546E-03
  0.155275345E+01  0.916383287E-03
  0.156523430E+01  0.944728614E-03
  0.157799447E+01  0.972844835E-03
  0.159104025E+01  0.100070972E-02
  0.160437787E+01  0.102830236E-02
  0.161801410E+01  0.105560292E-02
  0.163195562E+01  0.108259288E-02
  0.164620936E+01  0.110925548E-02
  0.166078234E+01  0.113557500E-02
  0.167568171E+01  0.116153760E-02
  0.169091499E+01  0.118713104E-02
  0.170648944E+01  0.121234509E-02
  0.172241306E+01  0.123717124E-02
  0.173869348E+01  0.126160274E-02
  0.175533879E+01  0.128563482E-02
  0.177235734E+01  0.130926468E-02
  0.178975737E+01  0.133249094E-02
  0.180754757E+01  0.135531405E-02
  0.182573676E+01  0.137773610E-02
  0.184433377E+01  0.139976060E-02
  0.186334801E+01  0.142139208E-02
  0.188278866E+01  0.144263660E-02
  0.190266550E+01  0.146350078E-02
  0.192298830E+01  0.148399256E-02
  0.194376695E+01  0.150412018E-02
  0.196501195E+01  0.152389263E-02
  0.198673368E+01  0.154331909E-02
  0.200894284E+01  0.156240922E-02
  0.203165054E+01  0.158117246E-02
  0.205486774E+01  0.159961858E-02
  0.207860613E+01  0.161775691E-02
  0.210287738E+01  0.163559662E-02
  0.212769341E+01  0.165314646E-02
  0.215306664E+01  0.167041505E-02
  0.217900944E+01  0.168741017E-02
  0.220553470E+01  0.170413929E-02
  0.223265576E+01  0.172060914E-02
  0.226038551E+01  0.173682603E-02
  0.228873801E+01  0.175279565E-02
  0.231772709E+01  0.176852313E-02
  0.234736729E+01  0.178401289E-02
  0.237767315E+01  0.179926888E-02
  0.240865946E+01  0.181429461E-02
  0.244034171E+01  0.182909321E-02
  0.247273564E+01  0.184366712E-02
  0.250585699E+01  0.185801846E-02
  0.253972244E+01  0.187214906E-02
  0.257434845E+01  0.188606058E-02
  0.260975218E+01  0.189975416E-02
  0.264595127E+01  0.191323087E-02
  0.268296361E+01  0.192649162E-02
  0.272080731E+01  0.193953712E-02
  0.275950098E+01  0.195236795E-02
  0.279906392E+01  0.196498469E-02
  0.283951569E+01  0.197738782E-02
  0.288087630E+01  0.198957766E-02
  0.292316604E+01  0.200155494E-02
  0.296640611E+01  0.201331964E-02
  0.301061726E+01  0.202487293E-02
  0.305582190E+01  0.203621481E-02
  0.310204220E+01  0.204734597E-02
  0.314930105E+01  0.205826713E-02
  0.319762158E+01  0.206897850E-02
  0.324702787E+01  0.207948056E-02
  0.329754424E+01  0.208977284E-02
  0.334919572E+01  0.209985604E-02
  0.340200758E+01  0.210973201E-02
  0.345600629E+01  0.211940636E-02
  0.351121831E+01  0.212888862E-02
  0.356767082E+01  0.213818834E-02
  0.362539196E+01  0.214730389E-02
  0.368441010E+01  0.215620641E-02
  0.374475455E+01  0.216481159E-02
  0.380645490E+01  0.217291852E-02
  0.386954165E+01  0.218044780E-02
  0.393404603E+01  0.218663085E-02
