# Coanda airfoil surface definition (does not include definition of the deep interior 
# plenum details, which have changed over the course of various experiments)
# (These coordinate points came from splining measured points and have NOT been smoothed)
VARIABLES = "X, inches","Y, inches"
ZONE T="SubZone 1"
 7.777101994E+00 8.469989896E-01
 7.776027203E+00 8.470486999E-01
 7.774787903E+00 8.470939994E-01
 7.773360252E+00 8.471311331E-01
 7.771718502E+00 8.471550941E-01
 7.769833565E+00 8.471568227E-01
 7.767673016E+00 8.470988274E-01
 7.765202045E+00 8.470606804E-01
 7.762382507E+00 8.470606804E-01
 7.759175777E+00 8.470322490E-01
 7.755539417E+00 8.469607234E-01
 7.751430035E+00 8.469607234E-01
 7.746806145E+00 8.468733430E-01
 7.741626740E+00 8.467675447E-01
 7.735854149E+00 8.467535973E-01
 7.729464054E+00 8.464319706E-01
 7.722421646E+00 8.463606834E-01
 7.714721680E+00 8.462172747E-01
 7.706365585E+00 8.461591005E-01
 7.697373867E+00 8.459681273E-01
 7.687782764E+00 8.457672596E-01
 7.677648544E+00 8.456638455E-01
 7.667047977E+00 8.455605507E-01
 7.656075954E+00 8.453606963E-01
 7.644839287E+00 8.452606797E-01
 7.633464813E+00 8.450608253E-01
 7.622071743E+00 8.449606895E-01
 7.610791683E+00 8.448606730E-01
 7.599747181E+00 8.447607160E-01
 7.589050770E+00 8.446606994E-01
 7.578800201E+00 8.445606828E-01
 7.568697453E+00 8.444607854E-01
 7.558385372E+00 8.443588614E-01
 7.547859669E+00 8.442608118E-01
 7.537116528E+00 8.441606760E-01
 7.526152611E+00 8.440607190E-01
 7.514964104E+00 8.439607024E-01
 7.503546238E+00 8.438606858E-01
 7.491896152E+00 8.437607884E-01
 7.480009556E+00 8.435608745E-01
 7.467883587E+00 8.434961438E-01
 7.455511093E+00 8.433607221E-01
 7.442889214E+00 8.433040977E-01
 7.430014133E+00 8.432537913E-01
 7.416882515E+00 8.431606889E-01
 7.403489590E+00 8.430607915E-01
 7.389831066E+00 8.429607749E-01
 7.375903130E+00 8.428608179E-01
 7.361701012E+00 8.427606821E-01
 7.347219467E+00 8.427606821E-01
 7.332458019E+00 8.425607085E-01
 7.317408562E+00 8.424606919E-01
 7.302067280E+00 8.424606919E-01
 7.286445141E+00 8.421975970E-01
 7.270516396E+00 8.421166539E-01
 7.254276752E+00 8.420667052E-01
 7.237724304E+00 8.420363069E-01
 7.220857143E+00 8.420128226E-01
 7.203674793E+00 8.419817686E-01
 7.186175823E+00 8.419321775E-01
 7.168351650E+00 8.418788314E-01
 7.150197983E+00 8.418245316E-01
 7.131710529E+00 8.417693377E-01
 7.112884998E+00 8.417131901E-01
 7.093716621E+00 8.416559100E-01
 7.074202538E+00 8.415924311E-01
 7.054337502E+00 8.415236473E-01
 7.034118176E+00 8.414562941E-01
 7.013539791E+00 8.413981199E-01
 6.992599010E+00 8.413574696E-01
 6.971291542E+00 8.413318396E-01
 6.949613571E+00 8.413125873E-01
 6.927561283E+00 8.412950039E-01
 6.905131340E+00 8.412737250E-01
 6.882319450E+00 8.412402272E-01
 6.859122753E+00 8.411840796E-01
 6.835537434E+00 8.411213756E-01
 6.811559677E+00 8.410733342E-01
 6.787187099E+00 8.410606980E-01
 6.762415886E+00 8.410606980E-01
 6.737242699E+00 8.410606980E-01
 6.711665630E+00 8.410606980E-01
 6.685680866E+00 8.410587311E-01
 6.659286022E+00 8.410330415E-01
 6.632478714E+00 8.409940004E-01
 6.605256557E+00 8.409643769E-01
 6.577617168E+00 8.409606814E-01
 6.549558163E+00 8.409606814E-01
 6.521078110E+00 8.409606814E-01
 6.492175102E+00 8.409606218E-01
 6.462847233E+00 8.409387469E-01
 6.433093548E+00 8.408960700E-01
 6.402912140E+00 8.408635855E-01
 6.372302532E+00 8.408607841E-01
 6.341263771E+00 8.408607841E-01
 6.309795380E+00 8.408607841E-01
 6.277896881E+00 8.408552408E-01
 6.245568275E+00 8.408159614E-01
 6.212809086E+00 8.407719731E-01
 6.179619789E+00 8.407664895E-01
 6.146001339E+00 8.408253193E-01
 6.111953735E+00 8.409133554E-01
 6.077478886E+00 8.409897685E-01
 6.042577744E+00 8.410665393E-01
 6.007251263E+00 8.411365151E-01
 5.971502304E+00 8.411837220E-01
 5.935331821E+00 8.412156105E-01
 5.898743153E+00 8.412509561E-01
 5.861738682E+00 8.413068056E-01
 5.824320793E+00 8.413826823E-01
 5.786493778E+00 8.414709568E-01
 5.748260021E+00 8.415849805E-01
 5.709623814E+00 8.417084217E-01
 5.670589447E+00 8.418027759E-01
 5.631161213E+00 8.418728113E-01
 5.591343403E+00 8.419566751E-01
 5.551141739E+00 8.421005607E-01
 5.510560989E+00 8.422791958E-01
 5.469607353E+00 8.424239159E-01
 5.428285599E+00 8.425409198E-01
 5.386603355E+00 8.426686525E-01
 5.344566345E+00 8.428295255E-01
 5.302181721E+00 8.430053592E-01
 5.259456158E+00 8.431738019E-01
 5.216397762E+00 8.433414698E-01
 5.173013687E+00 8.435308933E-01
 5.129312515E+00 8.437560797E-01
 5.085302353E+00 8.439716697E-01
 5.040991306E+00 8.441438675E-01
 4.996388912E+00 8.443194032E-01
 4.951503754E+00 8.445622921E-01
 4.906346321E+00 8.448488712E-01
 4.860925198E+00 8.450951576E-01
 4.815250397E+00 8.453142047E-01
 4.769332409E+00 8.455600739E-01
 4.723182201E+00 8.458473086E-01
 4.676809311E+00 8.461157084E-01
 4.630225182E+00 8.463384509E-01
 4.583440781E+00 8.465818167E-01
 4.536468029E+00 8.469057679E-01
 4.489317894E+00 8.472437263E-01
 4.442001820E+00 8.475296497E-01
 4.394531727E+00 8.478098512E-01
 4.346920013E+00 8.481293321E-01
 4.299178600E+00 8.484694362E-01
 4.251319885E+00 8.488346934E-01
 4.203356266E+00 8.491847515E-01
 4.155299187E+00 8.493517637E-01
 4.107161522E+00 8.494491577E-01
 4.058957577E+00 8.493821621E-01
 4.010699272E+00 8.489958644E-01
 3.962401390E+00 8.485017419E-01
 3.914076567E+00 8.478087187E-01
 3.865737915E+00 8.470174074E-01
 3.817397833E+00 8.461074233E-01
 3.769071579E+00 8.450527787E-01
 3.720772505E+00 8.438049555E-01
 3.672511816E+00 8.424599767E-01
 3.624302149E+00 8.410290480E-01
 3.576157331E+00 8.394970894E-01
 3.528090000E+00 8.378593326E-01
 3.480114698E+00 8.360946178E-01
 3.432244301E+00 8.341745138E-01
 3.384491920E+00 8.321192265E-01
 3.336866856E+00 8.299674392E-01
 3.289390087E+00 8.276081085E-01
 3.242085457E+00 8.248280883E-01
 3.194950819E+00 8.218554854E-01
 3.147980690E+00 8.190288544E-01
 3.101194620E+00 8.162079453E-01
 3.054608822E+00 8.133064508E-01
 3.008234739E+00 8.103216887E-01
 2.962093592E+00 8.071295619E-01
 2.916194201E+00 8.037367463E-01
 2.870533943E+00 8.003442883E-01
 2.825121880E+00 7.969714403E-01
 2.779979229E+00 7.934840322E-01
 2.735118866E+00 7.898259163E-01
 2.690544128E+00 7.860897779E-01
 2.646258831E+00 7.823419571E-01
 2.602277279E+00 7.785263658E-01
 2.558613777E+00 7.745844722E-01
 2.515274763E+00 7.705289125E-01
 2.472270012E+00 7.663708329E-01
 2.429606915E+00 7.620999813E-01
 2.387290478E+00 7.577560544E-01
 2.345326424E+00 7.533532977E-01
 2.303723097E+00 7.488840222E-01
 2.262487650E+00 7.443471551E-01
 2.221626043E+00 7.397444844E-01
 2.181142569E+00 7.351016402E-01
 2.141041040E+00 7.304268479E-01
 2.101330996E+00 7.256982923E-01
 2.062018633E+00 7.209026814E-01
 2.023108482E+00 7.160451412E-01
 1.984607458E+00 7.111176848E-01
 1.946520090E+00 7.061114311E-01
 1.908848166E+00 7.010489106E-01
 1.871592402E+00 6.959589720E-01
 1.834755778E+00 6.908370256E-01
 1.798349023E+00 6.856433153E-01
 1.762379646E+00 6.803434491E-01
 1.726845026E+00 6.749670506E-01
 1.691740870E+00 6.695719361E-01
 1.657065749E+00 6.641758084E-01
 1.622825623E+00 6.587529778E-01
 1.589026690E+00 6.532823443E-01
 1.555667520E+00 6.477697492E-01
 1.522750735E+00 6.422126293E-01
 1.490280986E+00 6.366002560E-01
 1.458259463E+00 6.309169531E-01
 1.426681042E+00 6.251963377E-01
 1.395539880E+00 6.194808483E-01
 1.364833832E+00 6.137761474E-01
 1.334564447E+00 6.080697775E-01
 1.304733515E+00 6.023569107E-01
 1.275336266E+00 5.966520309E-01
 1.246372104E+00 5.909500122E-01
 1.217850208E+00 5.852119327E-01
 1.189775944E+00 5.794076324E-01
 1.162141681E+00 5.735490322E-01
 1.134944439E+00 5.676531792E-01
 1.108182669E+00 5.617345572E-01
 1.081853390E+00 5.557883382E-01
 1.055952668E+00 5.498147011E-01
 1.030476213E+00 5.438328385E-01
 1.005419374E+00 5.378604531E-01
 9.807744622E-01 5.319037437E-01
 9.565418959E-01 5.259519815E-01
 9.327240586E-01 5.199939609E-01
 9.093216658E-01 5.140213966E-01
 8.863225579E-01 5.080515742E-01
 8.637256622E-01 5.020784140E-01
 8.415350318E-01 4.960858226E-01
 8.197538257E-01 4.900595844E-01
 7.983728051E-01 4.840093553E-01
 7.773687243E-01 4.780110717E-01
 7.567591667E-01 4.719851017E-01
 7.365049124E-01 4.660549164E-01
 7.166597247E-01 4.600319564E-01
 6.971697807E-01 4.540808797E-01
 6.780755520E-01 4.480535388E-01
 6.593058109E-01 4.421705306E-01
 6.408952475E-01 4.363042414E-01
 6.228439808E-01 4.304440320E-01
 6.051641107E-01 4.245434701E-01
 5.878388882E-01 4.186460078E-01
 5.708459616E-01 4.127992690E-01
 5.542121530E-01 4.069154263E-01
 5.379046202E-01 4.010800719E-01
 5.219733119E-01 3.951431513E-01
 5.063414574E-01 3.893010616E-01
 4.910610318E-01 3.834105134E-01
 4.760497212E-01 3.776721656E-01
 4.613940716E-01 3.718487620E-01
 4.470486045E-01 3.660512269E-01
 4.329860508E-01 3.603391647E-01
 4.191929400E-01 3.547276855E-01
 4.057266712E-01 3.490714729E-01
 3.925734758E-01 3.433918953E-01
 3.796878755E-01 3.377881944E-01
 3.671042919E-01 3.321742713E-01
 3.547996283E-01 3.265901208E-01
 3.427768052E-01 3.210274279E-01
 3.310142159E-01 3.155152798E-01
 3.195253611E-01 3.100196421E-01
 3.082966506E-01 3.045673966E-01
 2.973334491E-01 2.991282046E-01
 2.866549790E-01 2.936643064E-01
 2.761866748E-01 2.883124352E-01
 2.659998834E-01 2.829291224E-01
 2.560634613E-01 2.775693536E-01
 2.464244068E-01 2.721344233E-01
 2.370101959E-01 2.667582035E-01
 2.277636379E-01 2.615272701E-01
 2.188850641E-01 2.560968995E-01
 2.102080435E-01 2.507446408E-01
 2.017384320E-01 2.454479933E-01
 1.934694201E-01 2.402141839E-01
 1.852958202E-01 2.352148145E-01
 1.777178496E-01 2.296727449E-01
 1.701951176E-01 2.243851125E-01
 1.628595144E-01 2.191609442E-01
 1.557632089E-01 2.139235139E-01
 1.488237977E-01 2.087813169E-01
 1.420510709E-01 2.037180960E-01
 1.356030852E-01 1.985203773E-01
 1.293361485E-01 1.933734268E-01
 1.230826974E-01 1.884849072E-01
 1.173002198E-01 1.832911372E-01
 1.115411893E-01 1.783162057E-01
 1.059677824E-01 1.733722836E-01
 1.005115733E-01 1.685325056E-01
 9.526532143E-02 1.636901796E-01
 9.025720507E-02 1.588190943E-01
 8.534570038E-02 1.540579200E-01
 8.058515191E-02 1.493503749E-01
 7.602005452E-02 1.446492374E-01
 7.159809023E-02 1.400040388E-01
 6.742417812E-02 1.353166550E-01
 6.335815787E-02 1.307143867E-01
 5.951076746E-02 1.260952950E-01
 5.582210049E-02 1.215129495E-01
 5.227478221E-02 1.169822440E-01
 4.888657480E-02 1.124821454E-01
 4.568313807E-02 1.079978123E-01
 4.252872989E-02 1.036249772E-01
 3.965312243E-02 9.920097142E-02
 3.686381131E-02 9.485681355E-02
 3.424552083E-02 9.053838998E-02
 3.184470907E-02 8.621975034E-02
 2.952205017E-02 8.198048919E-02
 2.735059522E-02 7.777960598E-02
 2.530312166E-02 7.363101840E-02
 2.332874946E-02 6.955792010E-02
 2.154692076E-02 6.550768763E-02
 1.989491656E-02 6.150428578E-02
 1.829834841E-02 5.758082122E-02
 1.680615917E-02 5.371557176E-02
 1.545544714E-02 4.989527538E-02
 1.415490173E-02 4.615009949E-02
 1.295007579E-02 4.246734828E-02
 1.188697666E-02 3.882690147E-02
 1.078584790E-02 3.528513387E-02
 9.787091054E-03 3.180248290E-02
 9.040202014E-03 2.833291329E-02
 8.248466998E-03 2.495500073E-02
 7.402301300E-03 2.166939527E-02
 6.646842696E-03 1.843854599E-02
 6.001909263E-03 1.525923237E-02
 5.414781626E-03 1.214095950E-02
 4.871049896E-03 9.086466394E-03
 4.405615851E-03 6.088451017E-03
 3.936278634E-03 3.158897860E-03
 3.475619014E-03 2.948781475E-04
 3.090561600E-03 -2.515471308E-03
 2.712922869E-03 -5.263705738E-03
 2.345509827E-03 -7.950839587E-03
 2.089255024E-03 -1.059056446E-02
 1.853850554E-03 -1.317292638E-02
 1.469823066E-03 -1.567713171E-02
 1.042490476E-03 -1.812008955E-02
 7.598321536E-04 -2.052489109E-02
 5.278153112E-04 -2.288451605E-02
 3.438489803E-04 -2.519497089E-02
 1.982696267E-04 -2.745504491E-02
 1.017316317E-04 -2.966739982E-02
 5.956022505E-05 -3.183088452E-02
 2.743016921E-05 -3.394672275E-02
 7.075123449E-06 -3.601604700E-02
 0.000000000E+00 -3.803994879E-02
 4.196010559E-05 -4.005987942E-02
 1.308256906E-04 -4.211592674E-02
 3.083414340E-04 -4.420824721E-02
 4.863679642E-04 -4.634184763E-02
 6.613780279E-04 -4.851724207E-02
 8.847026620E-04 -5.073077977E-02
 1.154536614E-03 -5.298334733E-02
 1.466322341E-03 -5.527533591E-02
 1.862945850E-03 -5.759761110E-02
 2.376553603E-03 -5.994644016E-02
 2.841614420E-03 -6.235214323E-02
 3.313803812E-03 -6.480409950E-02
 3.887425642E-03 -6.728439033E-02
 4.527281970E-03 -6.979901344E-02
 5.222059786E-03 -7.235141098E-02
 5.912892520E-03 -7.495807111E-02
 6.690835115E-03 -7.759184390E-02
 7.567996625E-03 -8.025236428E-02
 8.420346305E-03 -8.297694474E-02
 9.351830930E-03 -8.573221415E-02
 1.038130559E-02 -8.851239830E-02
 1.151065156E-02 -9.131491184E-02
 1.262269635E-02 -9.418673813E-02
 1.382618025E-02 -9.708234668E-02
 1.516115107E-02 -9.998840094E-02
 1.655008644E-02 -1.029353067E-01
 1.798912510E-02 -1.059272960E-01
 1.961946115E-02 -1.088889688E-01
 2.129165642E-02 -1.119031608E-01
 2.302072756E-02 -1.149571911E-01
 2.488086186E-02 -1.180131435E-01
 2.672745287E-02 -1.211547777E-01
 2.869277261E-02 -1.243040413E-01
 3.075681813E-02 -1.274726391E-01
 3.289740905E-02 -1.306756884E-01
 3.516727313E-02 -1.338755637E-01
 3.754790872E-02 -1.370862573E-01
 4.004397616E-02 -1.403014064E-01
 4.260136560E-02 -1.435646713E-01
 4.517000169E-02 -1.469162554E-01
 4.782358557E-02 -1.502986848E-01
 5.065850541E-02 -1.536369771E-01
 5.353853106E-02 -1.570414156E-01
 5.647379160E-02 -1.605056971E-01
 5.953818560E-02 -1.639674455E-01
 6.271671504E-02 -1.674399674E-01
 6.595650315E-02 -1.709715575E-01
 6.930529326E-02 -1.745205075E-01
 7.272753865E-02 -1.781208366E-01
 7.627353072E-02 -1.817256063E-01
 7.995510846E-02 -1.853227019E-01
 8.371473104E-02 -1.889716387E-01
 8.754017949E-02 -1.926867962E-01
 9.149044007E-02 -1.964084357E-01
 9.553565085E-02 -2.001685798E-01
 9.970153868E-02 -2.039413154E-01
 1.038940474E-01 -2.078322172E-01
 1.082411855E-01 -2.117020190E-01
 1.127635092E-01 -2.155248821E-01
 1.173934042E-01 -2.193802148E-01
 1.220526323E-01 -2.233630270E-01
 1.268798411E-01 -2.273097485E-01
 1.318340153E-01 -2.312704921E-01
 1.369379014E-01 -2.352167219E-01
 1.422525048E-01 -2.390661389E-01
 1.476910263E-01 -2.429336160E-01
 1.532259732E-01 -2.468616366E-01
 1.588856131E-01 -2.508111894E-01
 1.646770984E-01 -2.547745705E-01
 1.705965847E-01 -2.587587237E-01
 1.766460985E-01 -2.627621889E-01
 1.828277111E-01 -2.667840421E-01
 1.891432852E-01 -2.708232403E-01
 1.955944896E-01 -2.748786211E-01
 2.021832317E-01 -2.789492309E-01
 2.089113891E-01 -2.830341160E-01
 2.157808244E-01 -2.871316671E-01
 2.227930427E-01 -2.912411690E-01
 2.299497128E-01 -2.953617871E-01
 2.372525632E-01 -2.994924784E-01
 2.447033823E-01 -3.036316335E-01
 2.523033619E-01 -3.077788949E-01
 2.600541711E-01 -3.119331896E-01
 2.679573596E-01 -3.160934448E-01
 2.760141790E-01 -3.202591538E-01
 2.842260301E-01 -3.244291842E-01
 2.925940454E-01 -3.286031485E-01
 3.011195064E-01 -3.327803314E-01
 3.098037243E-01 -3.369598687E-01
 3.186478913E-01 -3.411411047E-01
 3.276527524E-01 -3.453240991E-01
 3.368110955E-01 -3.495284915E-01
 3.461422324E-01 -3.537045717E-01
 3.555709124E-01 -3.580304086E-01
 3.651844561E-01 -3.623142242E-01
 3.749650419E-01 -3.665953279E-01
 3.849003613E-01 -3.709043860E-01
 3.950210214E-01 -3.751721084E-01
 4.052888453E-01 -3.794893920E-01
 4.157437682E-01 -3.837622106E-01
 4.263561070E-01 -3.880648315E-01
 4.371572733E-01 -3.923168182E-01
 4.481098056E-01 -3.966171443E-01
 4.592349827E-01 -4.009139836E-01
 4.705139101E-01 -4.052567780E-01
 4.819748998E-01 -4.095724225E-01
 4.936010242E-01 -4.139059484E-01
 5.054058433E-01 -4.182227254E-01
 5.173850656E-01 -4.225348234E-01
 5.295065045E-01 -4.269308746E-01
 5.418137908E-01 -4.312912524E-01
 5.542951226E-01 -4.356485009E-01
 5.669371486E-01 -4.400407970E-01
 5.797444582E-01 -4.444585145E-01
 5.927259326E-01 -4.488722980E-01
 6.058890820E-01 -4.532606900E-01
 6.192421317E-01 -4.575949311E-01
 6.327622533E-01 -4.619481862E-01
 6.464540362E-01 -4.662970901E-01
 6.603323221E-01 -4.706009328E-01
 6.743816137E-01 -4.749058485E-01
 6.886054277E-01 -4.791947901E-01
 7.030096054E-01 -4.834440351E-01
 7.175800204E-01 -4.877056777E-01
 7.323437929E-01 -4.918795824E-01
 7.472626567E-01 -4.960946143E-01
 7.623504400E-01 -5.003021955E-01
 7.776128054E-01 -5.044707060E-01
 7.930513024E-01 -5.085986853E-01
 8.086329699E-01 -5.127985477E-01
 8.243789077E-01 -5.169883370E-01
 8.402706385E-01 -5.212303400E-01
 8.563446403E-01 -5.253861547E-01
 8.725649714E-01 -5.295853019E-01
 8.889560103E-01 -5.337220430E-01
 9.055047631E-01 -5.378486514E-01
 9.222051501E-01 -5.419766903E-01
 9.390451312E-01 -5.461450219E-01
 9.560478926E-01 -5.502526164E-01
 9.732114077E-01 -5.543062091E-01
 9.905073047E-01 -5.584089160E-01
 1.007949471E+00 -5.624923110E-01
 1.025542259E+00 -5.665333271E-01
 1.043280602E+00 -5.705373883E-01
 1.061152220E+00 -5.745453238E-01
 1.079152465E+00 -5.785686374E-01
 1.097285390E+00 -5.825734138E-01
 1.115554214E+00 -5.865445137E-01
 1.133947253E+00 -5.905147195E-01
 1.152465582E+00 -5.944671631E-01
 1.171104670E+00 -5.984003544E-01
 1.189856172E+00 -6.023513675E-01
 1.208740711E+00 -6.062024236E-01
 1.227722764E+00 -6.101050973E-01
 1.246821046E+00 -6.139566302E-01
 1.266026497E+00 -6.177818775E-01
 1.285339475E+00 -6.215629578E-01
 1.304753780E+00 -6.253086925E-01
 1.324264407E+00 -6.290245056E-01
 1.343874931E+00 -6.326752305E-01
 1.363569736E+00 -6.363255382E-01
 1.383344412E+00 -6.399840117E-01
 1.403217196E+00 -6.435236931E-01
 1.423158526E+00 -6.470825076E-01
 1.443165302E+00 -6.506605148E-01
 1.463252425E+00 -6.541383266E-01
 1.483389497E+00 -6.576866508E-01
 1.503599524E+00 -6.611371040E-01
 1.523867011E+00 -6.645538211E-01
 1.544197798E+00 -6.678801179E-01
 1.564579487E+00 -6.711636186E-01
 1.585004687E+00 -6.744152308E-01
 1.605475187E+00 -6.776053309E-01
 1.625978112E+00 -6.807842851E-01
 1.646515131E+00 -6.839117408E-01
 1.667070627E+00 -6.870577931E-01
 1.687659621E+00 -6.901092529E-01
 1.708264828E+00 -6.931402087E-01
 1.728888273E+00 -6.961097717E-01
 1.749501824E+00 -6.991721392E-01
 1.770131230E+00 -7.021329403E-01
 1.790764213E+00 -7.050412297E-01
 1.811397910E+00 -7.078765631E-01
 1.832016349E+00 -7.107367516E-01
 1.852623940E+00 -7.135306001E-01
 1.873218894E+00 -7.162676454E-01
 1.893781781E+00 -7.190483809E-01
 1.914329529E+00 -7.217266560E-01
 1.934845090E+00 -7.243735194E-01
 1.955324411E+00 -7.269985676E-01
 1.975764751E+00 -7.296004295E-01
 1.996153474E+00 -7.322264910E-01
 2.016515255E+00 -7.346740961E-01
 2.036811829E+00 -7.371848226E-01
 2.057061195E+00 -7.395995259E-01
 2.077237844E+00 -7.420795560E-01
 2.097361326E+00 -7.444408536E-01
 2.117408037E+00 -7.468537092E-01
 2.137398005E+00 -7.491110563E-01
 2.157305002E+00 -7.514113188E-01
 2.177288055E+00 -7.536422610E-01
 2.197494745E+00 -7.558376193E-01
 2.217924118E+00 -7.580228448E-01
 2.238571405E+00 -7.602251172E-01
 2.259441853E+00 -7.623889446E-01
 2.280529737E+00 -7.645946741E-01
 2.301856995E+00 -7.666331530E-01
 2.323391676E+00 -7.688105106E-01
 2.345149040E+00 -7.709801197E-01
 2.367129803E+00 -7.731288671E-01
 2.389328957E+00 -7.753041983E-01
 2.411745548E+00 -7.775061727E-01
 2.434386969E+00 -7.796609998E-01
 2.457249641E+00 -7.818130851E-01
 2.480334759E+00 -7.839484215E-01
 2.503638744E+00 -7.860793471E-01
 2.527162790E+00 -7.881878614E-01
 2.550900936E+00 -7.903480530E-01
 2.574868679E+00 -7.923637629E-01
 2.599051237E+00 -7.944136262E-01
 2.623445749E+00 -7.964971066E-01
 2.648057222E+00 -7.985655665E-01
 2.672890425E+00 -8.005245924E-01
 2.697940588E+00 -8.024427891E-01
 2.723196268E+00 -8.044145703E-01
 2.748666763E+00 -8.063527346E-01
 2.774348736E+00 -8.082511425E-01
 2.800240278E+00 -8.101124763E-01
 2.826335907E+00 -8.119922876E-01
 2.852645397E+00 -8.137184978E-01
 2.879151344E+00 -8.155447245E-01
 2.905862570E+00 -8.172876835E-01
 2.932770252E+00 -8.190931082E-01
 2.959876776E+00 -8.208545446E-01
 2.987174273E+00 -8.226729035E-01
 3.014671564E+00 -8.243739605E-01
 3.042355061E+00 -8.261448741E-01
 3.070230722E+00 -8.278451562E-01
 3.098295212E+00 -8.294880986E-01
 3.126546383E+00 -8.310434222E-01
 3.154973745E+00 -8.326435685E-01
 3.183596134E+00 -8.338801265E-01
 3.212391376E+00 -8.352008462E-01
 3.241253614E+00 -8.343150616E-01
 3.270364523E+00 -8.358640671E-01
 3.299635172E+00 -8.377549648E-01
 3.329074144E+00 -8.395635486E-01
 3.358682632E+00 -8.411931396E-01
 3.388453960E+00 -8.427008986E-01
 3.418386221E+00 -8.440472484E-01
 3.448470831E+00 -8.453242183E-01
 3.478705406E+00 -8.464639187E-01
 3.509084702E+00 -8.475446105E-01
 3.539604664E+00 -8.485495448E-01
 3.570260525E+00 -8.494921923E-01
 3.601048231E+00 -8.504441977E-01
 3.631962299E+00 -8.514087200E-01
 3.663002253E+00 -8.522778749E-01
 3.694162369E+00 -8.530462384E-01
 3.725437403E+00 -8.538252115E-01
 3.756823778E+00 -8.545441031E-01
 3.788317442E+00 -8.550863266E-01
 3.819916487E+00 -8.555642366E-01
 3.851613045E+00 -8.560106158E-01
 3.883404016E+00 -8.563867807E-01
 3.915284634E+00 -8.565818667E-01
 3.947249174E+00 -8.567370176E-01
 3.979294300E+00 -8.567823172E-01
 4.011411667E+00 -8.567152023E-01
 4.043601513E+00 -8.566765785E-01
 4.075855732E+00 -8.564999104E-01
 4.108170509E+00 -8.563134670E-01
 4.140540123E+00 -8.560802341E-01
 4.172959805E+00 -8.558076620E-01
 4.205425262E+00 -8.554819226E-01
 4.237931728E+00 -8.551115394E-01
 4.270472050E+00 -8.545897603E-01
 4.303044319E+00 -8.541287184E-01
 4.335640430E+00 -8.535385728E-01
 4.368255138E+00 -8.528974056E-01
 4.400887012E+00 -8.522394300E-01
 4.433528900E+00 -8.516417742E-01
 4.466179848E+00 -8.510057330E-01
 4.498830795E+00 -8.503491879E-01
 4.531477928E+00 -8.496473432E-01
 4.564117432E+00 -8.490424156E-01
 4.596740723E+00 -8.483243585E-01
 4.629347324E+00 -8.476597667E-01
 4.661932945E+00 -8.471124768E-01
 4.694487572E+00 -8.464542627E-01
 4.727008343E+00 -8.458060622E-01
 4.759491920E+00 -8.452646732E-01
 4.791932106E+00 -8.446420431E-01
 4.824323177E+00 -8.439960480E-01
 4.856662273E+00 -8.434345722E-01
 4.888943195E+00 -8.428418040E-01
 4.921157837E+00 -8.422147036E-01
 4.953308582E+00 -8.416361213E-01
 4.985387802E+00 -8.410791159E-01
 5.017387390E+00 -8.405240178E-01
 5.049307346E+00 -8.399641514E-01
 5.081139088E+00 -8.392574787E-01
 5.112883091E+00 -8.387320042E-01
 5.144530296E+00 -8.381198049E-01
 5.176078796E+00 -8.375151157E-01
 5.207522869E+00 -8.369603753E-01
 5.238859653E+00 -8.363747001E-01
 5.270084381E+00 -8.358052969E-01
 5.301190376E+00 -8.352234960E-01
 5.332177162E+00 -8.346853852E-01
 5.363040447E+00 -8.341597319E-01
 5.393775940E+00 -8.336277604E-01
 5.424378872E+00 -8.330996037E-01
 5.454845905E+00 -8.326317668E-01
 5.485172272E+00 -8.321050406E-01
 5.515353680E+00 -8.315374851E-01
 5.545389175E+00 -8.310817480E-01
 5.575275421E+00 -8.306310177E-01
 5.605006218E+00 -8.301626444E-01
 5.634580612E+00 -8.297188282E-01
 5.663994789E+00 -8.293117285E-01
 5.693244457E+00 -8.289266825E-01
 5.722327232E+00 -8.284984231E-01
 5.751240253E+00 -8.281005621E-01
 5.779980659E+00 -8.277301788E-01
 5.808544636E+00 -8.273077607E-01
 5.836930275E+00 -8.269622922E-01
 5.865134716E+00 -8.266017437E-01
 5.893155575E+00 -8.262453079E-01
 5.920990467E+00 -8.259382248E-01
 5.948636055E+00 -8.256015778E-01
 5.976091862E+00 -8.252988458E-01
 6.003355026E+00 -8.249881864E-01
 6.030422688E+00 -8.246470094E-01
 6.057293892E+00 -8.243383765E-01
 6.083964348E+00 -8.240832686E-01
 6.110434532E+00 -8.238702416E-01
 6.136703014E+00 -8.235623240E-01
 6.162767410E+00 -8.233619928E-01
 6.188626766E+00 -8.231878281E-01
 6.214276314E+00 -8.229292631E-01
 6.239719391E+00 -8.227548003E-01
 6.264951706E+00 -8.225697279E-01
 6.289971828E+00 -8.223522305E-01
 6.314780235E+00 -8.222291470E-01
 6.339374065E+00 -8.220434189E-01
 6.363754749E+00 -8.218526244E-01
 6.387919903E+00 -8.217424750E-01
 6.411869049E+00 -8.215453029E-01
 6.435600758E+00 -8.213501573E-01
 6.459113598E+00 -8.211231232E-01
 6.482408047E+00 -8.210381269E-01
 6.505485535E+00 -8.208607435E-01
 6.528343678E+00 -8.207572103E-01
 6.550981522E+00 -8.205671310E-01
 6.573400021E+00 -8.203862309E-01
 6.595597744E+00 -8.202137351E-01
 6.617576599E+00 -8.201283813E-01
 6.639333725E+00 -8.199320436E-01
 6.660871029E+00 -8.198429942E-01
 6.682188034E+00 -8.196822405E-01
 6.703285694E+00 -8.195732832E-01
 6.724163532E+00 -8.194177747E-01
 6.744822025E+00 -8.193146586E-01
 6.765260696E+00 -8.191529512E-01
 6.785480976E+00 -8.190158606E-01
 6.805483341E+00 -8.188650608E-01
 6.825268269E+00 -8.188627958E-01
 6.844834805E+00 -8.187426925E-01
 6.864184380E+00 -8.185594082E-01
 6.883318901E+00 -8.184731007E-01
 6.902237892E+00 -8.183594346E-01
 6.920942783E+00 -8.183115125E-01
 6.939431667E+00 -8.181990385E-01
 6.957709789E+00 -8.181453347E-01
 6.975775242E+00 -8.180220723E-01
 6.993629932E+00 -8.180387616E-01
 7.011274338E+00 -8.179771900E-01
 7.028710365E+00 -8.179575801E-01
 7.045937538E+00 -8.179463148E-01
 7.062957764E+00 -8.178306818E-01
 7.079772949E+00 -8.177704215E-01
 7.096383572E+00 -8.178403974E-01
 7.112790108E+00 -8.178994656E-01
 7.128995419E+00 -8.178021312E-01
 7.144999504E+00 -8.178776503E-01
 7.160803795E+00 -8.180081844E-01
 7.176409721E+00 -8.180229664E-01
 7.191818714E+00 -8.180818558E-01
 7.207031250E+00 -8.180301189E-01
 7.222051620E+00 -8.180654049E-01
 7.236878395E+00 -8.182031512E-01
 7.251514435E+00 -8.182386756E-01
 7.265960217E+00 -8.183354139E-01
 7.280218601E+00 -8.183963895E-01
 7.294290543E+00 -8.184604645E-01
 7.308176517E+00 -8.185247183E-01
 7.321878910E+00 -8.186042309E-01
 7.335398197E+00 -8.187782168E-01
 7.348737717E+00 -8.188541532E-01
 7.361898422E+00 -8.189567327E-01
 7.374880791E+00 -8.190993667E-01
 7.387688160E+00 -8.192105889E-01
 7.400321484E+00 -8.193377852E-01
 7.412782669E+00 -8.194313645E-01
 7.425072670E+00 -8.195906281E-01
 7.437193394E+00 -8.197326064E-01
 7.449145794E+00 -8.198713064E-01
 7.460932255E+00 -8.200549483E-01
 7.472555161E+00 -8.201769590E-01
 7.484014988E+00 -8.203107119E-01
 7.495313168E+00 -8.205068707E-01
 7.506453514E+00 -8.206714392E-01
 7.517436028E+00 -8.208276033E-01
 7.528261662E+00 -8.210126162E-01
 7.538932323E+00 -8.212286234E-01
 7.549450874E+00 -8.214429617E-01
 7.559818745E+00 -8.216207027E-01
 7.570037365E+00 -8.218046427E-01
 7.580109119E+00 -8.219432235E-01
 7.590352058E+00 -8.222587705E-01
 7.601038933E+00 -8.224200606E-01
 7.612066746E+00 -8.226613402E-01
 7.623323917E+00 -8.229285479E-01
 7.634687424E+00 -8.232143521E-01
 7.646033287E+00 -8.234741092E-01
 7.657232285E+00 -8.237734437E-01
 7.668167114E+00 -8.240275383E-01
 7.678728104E+00 -8.242884874E-01
 7.688820839E+00 -8.246016502E-01
 7.698374271E+00 -8.248246312E-01
 7.707329273E+00 -8.250550032E-01
 7.715646267E+00 -8.253754973E-01
 7.723307133E+00 -8.257764578E-01
 7.730311871E+00 -8.261747956E-01
 7.736679077E+00 -8.264461756E-01
 7.742424488E+00 -8.267295957E-01
 7.747576714E+00 -8.270445466E-01
 7.752182961E+00 -8.272286057E-01
 7.756275654E+00 -8.274094462E-01
 7.759899139E+00 -8.275725842E-01
 7.763095379E+00 -8.277049065E-01
 7.765905857E+00 -8.277899027E-01
 7.768370152E+00 -8.278990388E-01
 7.770523071E+00 -8.280382752E-01
 7.772403240E+00 -8.281296492E-01
 7.774042130E+00 -8.281995058E-01
 7.775467873E+00 -8.282482028E-01
 7.776707172E+00 -8.282782435E-01
 7.777782917E+00 -8.282930255E-01
ZONE T="SubZone 2"
 7.777782917E+00 -8.103408217E-01
 7.778542042E+00 -8.103446364E-01
 7.779319286E+00 -8.103485703E-01
 7.780115604E+00 -8.103500009E-01
 7.780930996E+00 -8.103508353E-01
 7.781766415E+00 -8.103505969E-01
 7.782621861E+00 -8.103499413E-01
 7.783497810E+00 -8.103486896E-01
 7.784395218E+00 -8.103471994E-01
 7.785314083E+00 -8.103450537E-01
 7.786254883E+00 -8.103427291E-01
 7.787218094E+00 -8.103397489E-01
 7.788204670E+00 -8.103364706E-01
 7.789215088E+00 -8.103328943E-01
 7.790249348E+00 -8.103282452E-01
 7.791308880E+00 -8.103226423E-01
 7.792393208E+00 -8.103123903E-01
 7.793503284E+00 -8.102994561E-01
 7.794640064E+00 -8.102840781E-01
 7.795804024E+00 -8.102653027E-01
 7.796995163E+00 -8.102447391E-01
 7.798214912E+00 -8.102226853E-01
 7.799463749E+00 -8.101996183E-01
 7.800741673E+00 -8.101745248E-01
 7.802050114E+00 -8.101462126E-01
 7.803389072E+00 -8.101142645E-01
 7.804759979E+00 -8.100788593E-01
 7.806162834E+00 -8.100396991E-01
 7.807598591E+00 -8.099974990E-01
 7.809067726E+00 -8.099527955E-01
 7.810571671E+00 -8.099045157E-01
 7.812110424E+00 -8.098515868E-01
 7.813684940E+00 -8.097936511E-01
 7.815295696E+00 -8.097236156E-01
 7.816943169E+00 -8.096387386E-01
 7.818629265E+00 -8.095518947E-01
 7.820354462E+00 -8.094711900E-01
 7.822120190E+00 -8.093997836E-01
 7.823926926E+00 -8.093267083E-01
 7.825773716E+00 -8.092322946E-01
 7.827663422E+00 -8.091331124E-01
 7.829596043E+00 -8.090244532E-01
 7.831572056E+00 -8.089065552E-01
 7.833593369E+00 -8.087859750E-01
 7.835661888E+00 -8.086774349E-01
 7.837777138E+00 -8.085669875E-01
 7.839937210E+00 -8.084113598E-01
 7.842146397E+00 -8.082410693E-01
 7.844406128E+00 -8.080903888E-01
 7.846718311E+00 -8.079506159E-01
 7.849079132E+00 -8.077771664E-01
 7.851491928E+00 -8.075735569E-01
 7.853957653E+00 -8.073641658E-01
 7.856478691E+00 -8.071495295E-01
 7.859053135E+00 -8.069070578E-01
 7.861684322E+00 -8.066542745E-01
 7.864372253E+00 -8.063843250E-01
 7.867119789E+00 -8.061152101E-01
 7.869930744E+00 -8.058724403E-01
 7.872796059E+00 -8.055680990E-01
 7.875720501E+00 -8.052127957E-01
 7.878709793E+00 -8.048663139E-01
 7.881762505E+00 -8.045054078E-01
 7.884880066E+00 -8.041278124E-01
 7.888062477E+00 -8.037281632E-01
 7.891311646E+00 -8.033113480E-01
 7.894627571E+00 -8.028704524E-01
 7.898005962E+00 -8.023627996E-01
 7.901451588E+00 -8.018199801E-01
 7.904969215E+00 -8.012635708E-01
 7.908560753E+00 -8.007004857E-01
 7.912225723E+00 -8.001160622E-01
 7.915950298E+00 -7.994264960E-01
 7.919757366E+00 -7.987570167E-01
 7.923644066E+00 -7.980793118E-01
 7.927602768E+00 -7.973486185E-01
 7.931643963E+00 -7.966172099E-01
 7.935762405E+00 -7.958449125E-01
 7.939955235E+00 -7.950157523E-01
 7.944233418E+00 -7.941793799E-01
 7.948595524E+00 -7.933224440E-01