# nondimensional velocity data from A3D, Smits convex curvature case, GLVY model
# Note: U_ref=31.9 m/s
VARIABLES = "y, m","u/U_ref"
ZONE T="x=0.030"
  0.0000000E+00  0.0000000E+00
  0.1144144E-03  0.3147918E+00
  0.2288288E-03  0.4008527E+00
  0.3432432E-03  0.4186219E+00
  0.4576577E-03  0.4273411E+00
  0.5720721E-03  0.4348245E+00
  0.6864865E-03  0.4432295E+00
  0.8009009E-03  0.4541304E+00
  0.9153153E-03  0.4681981E+00
  0.1029730E-02  0.4875464E+00
  0.1144144E-02  0.5165144E+00
  0.1258559E-02  0.5483082E+00
  0.1372973E-02  0.5801451E+00
  0.1487387E-02  0.6070997E+00
  0.1601802E-02  0.6291047E+00
  0.1716216E-02  0.6482370E+00
  0.1830631E-02  0.6657088E+00
  0.1945045E-02  0.6821473E+00
  0.2059459E-02  0.6982959E+00
  0.2173874E-02  0.7148969E+00
  0.2288288E-02  0.7324129E+00
  0.2402703E-02  0.7510630E+00
  0.2517117E-02  0.7708348E+00
  0.2631532E-02  0.7913382E+00
  0.2745946E-02  0.8116066E+00
  0.2860360E-02  0.8303348E+00
  0.2974775E-02  0.8465755E+00
  0.3089189E-02  0.8600984E+00
  0.3203604E-02  0.8711934E+00
  0.3318018E-02  0.8803376E+00
  0.3432432E-02  0.8879768E+00
  0.3546847E-02  0.8944696E+00
  0.3661261E-02  0.9000918E+00
  0.3775676E-02  0.9050527E+00
  0.3890090E-02  0.9095088E+00
  0.4004505E-02  0.9135755E+00
  0.4118919E-02  0.9173382E+00
  0.4233333E-02  0.9208586E+00
  0.4347748E-02  0.9241799E+00
  0.4462162E-02  0.9273351E+00
  0.4576577E-02  0.9303461E+00
  0.4690991E-02  0.9332313E+00
  0.4805405E-02  0.9360044E+00
  0.4919820E-02  0.9386774E+00
  0.5034234E-02  0.9412608E+00
  0.5148649E-02  0.9437639E+00
  0.5263063E-02  0.9461959E+00
  0.5377477E-02  0.9485649E+00
  0.5491892E-02  0.9508774E+00
  0.5606306E-02  0.9531398E+00
  0.5720721E-02  0.9553567E+00
  0.5835135E-02  0.9575323E+00
  0.5949550E-02  0.9596699E+00
  0.6063964E-02  0.9617721E+00
  0.6178378E-02  0.9638408E+00
  0.6292793E-02  0.9658787E+00
  0.6407207E-02  0.9678871E+00
  0.6521622E-02  0.9698687E+00
  0.6636036E-02  0.9718254E+00
  0.6750450E-02  0.9737589E+00
  0.6864865E-02  0.9756715E+00
  0.6979279E-02  0.9775646E+00
  0.7093694E-02  0.9794389E+00
  0.7208108E-02  0.9812953E+00
  0.7322523E-02  0.9831345E+00
  0.7436937E-02  0.9849571E+00
  0.7551351E-02  0.9867636E+00
  0.7665766E-02  0.9885555E+00
  0.7780180E-02  0.9903332E+00
  0.7894595E-02  0.9920981E+00
  0.8009009E-02  0.9938520E+00
  0.8123423E-02  0.9955966E+00
  0.8237838E-02  0.9973342E+00
  0.8352252E-02  0.9990661E+00
  0.8466667E-02  0.1000793E+01
  0.8581081E-02  0.1002518E+01
  0.8695495E-02  0.1004239E+01
  0.8809910E-02  0.1005957E+01
  0.8924324E-02  0.1007674E+01
  0.9038739E-02  0.1009390E+01
  0.9153153E-02  0.1011105E+01
  0.9267568E-02  0.1012819E+01
  0.9381982E-02  0.1014534E+01
  0.9496396E-02  0.1016250E+01
  0.9610811E-02  0.1017967E+01
  0.9725225E-02  0.1019686E+01
  0.9839640E-02  0.1021408E+01
  0.9954054E-02  0.1023134E+01
  0.1006847E-01  0.1024864E+01
  0.1018288E-01  0.1026599E+01
  0.1029730E-01  0.1028341E+01
  0.1041171E-01  0.1030093E+01
  0.1052613E-01  0.1031856E+01
  0.1064054E-01  0.1033631E+01
  0.1075495E-01  0.1035418E+01
  0.1086937E-01  0.1037220E+01
  0.1098378E-01  0.1039037E+01
  0.1109820E-01  0.1040866E+01
  0.1121261E-01  0.1042704E+01
  0.1132703E-01  0.1044546E+01
  0.1144144E-01  0.1046390E+01
  0.1155586E-01  0.1048226E+01
  0.1167027E-01  0.1050052E+01
  0.1178468E-01  0.1051855E+01
  0.1189910E-01  0.1053629E+01
  0.1201351E-01  0.1055371E+01
  0.1212793E-01  0.1057075E+01
  0.1224234E-01  0.1058736E+01
  0.1235676E-01  0.1060350E+01
  0.1247117E-01  0.1061916E+01
  0.1258559E-01  0.1063435E+01
  0.1270000E-01  0.1064908E+01
  0.1281441E-01  0.1066338E+01
  0.1292883E-01  0.1067726E+01
  0.1304324E-01  0.1069074E+01
  0.1315766E-01  0.1070385E+01
  0.1327207E-01  0.1071661E+01
  0.1338649E-01  0.1072905E+01
  0.1350090E-01  0.1074121E+01
  0.1361532E-01  0.1075310E+01
  0.1372973E-01  0.1076475E+01
  0.1384414E-01  0.1077618E+01
  0.1395856E-01  0.1078741E+01
  0.1407297E-01  0.1079848E+01
  0.1418739E-01  0.1080944E+01
  0.1430180E-01  0.1082031E+01
  0.1441622E-01  0.1083115E+01
  0.1453063E-01  0.1084201E+01
  0.1464505E-01  0.1085288E+01
  0.1475946E-01  0.1086382E+01
  0.1487387E-01  0.1087482E+01
  0.1498829E-01  0.1088595E+01
  0.1510270E-01  0.1089720E+01
  0.1521712E-01  0.1090858E+01
  0.1533153E-01  0.1092008E+01
  0.1544595E-01  0.1093172E+01
  0.1556036E-01  0.1094348E+01
  0.1567477E-01  0.1095535E+01
  0.1578919E-01  0.1096733E+01
  0.1590360E-01  0.1097935E+01
  0.1601802E-01  0.1099142E+01
  0.1613243E-01  0.1100348E+01
  0.1624685E-01  0.1101548E+01
  0.1636126E-01  0.1102741E+01
  0.1647568E-01  0.1103924E+01
  0.1659009E-01  0.1105092E+01
  0.1670450E-01  0.1106245E+01
  0.1681892E-01  0.1107376E+01
  0.1693333E-01  0.1108483E+01
  0.1704775E-01  0.1109566E+01
  0.1716216E-01  0.1110623E+01
  0.1727658E-01  0.1111652E+01
  0.1739099E-01  0.1112653E+01
  0.1750541E-01  0.1113624E+01
  0.1761982E-01  0.1114567E+01
  0.1773423E-01  0.1115480E+01
  0.1784865E-01  0.1116362E+01
  0.1796306E-01  0.1117216E+01
  0.1807748E-01  0.1118040E+01
  0.1819189E-01  0.1118837E+01
  0.1830631E-01  0.1119605E+01
  0.1842072E-01  0.1120346E+01
  0.1853514E-01  0.1121060E+01
  0.1864955E-01  0.1121748E+01
  0.1876396E-01  0.1122410E+01
  0.1887838E-01  0.1123048E+01
  0.1899279E-01  0.1123662E+01
  0.1910721E-01  0.1124252E+01
  0.1922162E-01  0.1124820E+01
  0.1933604E-01  0.1125366E+01
  0.1945045E-01  0.1125890E+01
  0.1956486E-01  0.1126393E+01
  0.1967928E-01  0.1126876E+01
  0.1979369E-01  0.1127339E+01
  0.1990811E-01  0.1127783E+01
  0.2002252E-01  0.1128208E+01
  0.2013694E-01  0.1128614E+01
  0.2025135E-01  0.1129003E+01
  0.2036577E-01  0.1129373E+01
  0.2048018E-01  0.1129727E+01
  0.2059459E-01  0.1130064E+01
  0.2070901E-01  0.1130385E+01
  0.2082342E-01  0.1130689E+01
  0.2093784E-01  0.1130978E+01
  0.2105225E-01  0.1131252E+01
  0.2116667E-01  0.1131511E+01
  0.2128108E-01  0.1131755E+01
  0.2139550E-01  0.1131986E+01
  0.2150991E-01  0.1132203E+01
  0.2162432E-01  0.1132406E+01
  0.2173874E-01  0.1132596E+01
  0.2185315E-01  0.1132774E+01
  0.2196757E-01  0.1132939E+01
  0.2208198E-01  0.1133093E+01
  0.2219640E-01  0.1133235E+01
  0.2231081E-01  0.1133366E+01
  0.2242523E-01  0.1133486E+01
  0.2253964E-01  0.1133595E+01
  0.2265405E-01  0.1133694E+01
  0.2276847E-01  0.1133784E+01
  0.2288288E-01  0.1133864E+01
  0.2299730E-01  0.1133935E+01
  0.2311171E-01  0.1133998E+01
  0.2322613E-01  0.1134052E+01
  0.2334054E-01  0.1134098E+01
  0.2345495E-01  0.1134136E+01
  0.2356937E-01  0.1134168E+01
  0.2368378E-01  0.1134193E+01
  0.2379820E-01  0.1134211E+01
  0.2391261E-01  0.1134223E+01
  0.2402703E-01  0.1134228E+01
  0.2414144E-01  0.1134228E+01
  0.2425586E-01  0.1134222E+01
  0.2437027E-01  0.1134211E+01
  0.2448468E-01  0.1134195E+01
  0.2459910E-01  0.1134173E+01
  0.2471351E-01  0.1134147E+01
  0.2482793E-01  0.1134116E+01
  0.2494234E-01  0.1134080E+01
  0.2505676E-01  0.1134039E+01
  0.2517117E-01  0.1133993E+01
  0.2528559E-01  0.1133941E+01
  0.2540000E-01  0.1133884E+01
  0.2551441E-01  0.1133822E+01
  0.2562883E-01  0.1133754E+01
  0.2574324E-01  0.1133682E+01
  0.2585766E-01  0.1133604E+01
  0.2597207E-01  0.1133522E+01
  0.2608649E-01  0.1133437E+01
  0.2620090E-01  0.1133349E+01
  0.2631532E-01  0.1133256E+01
  0.2642973E-01  0.1133161E+01
  0.2654414E-01  0.1133063E+01
  0.2665856E-01  0.1132962E+01
  0.2677297E-01  0.1132858E+01
  0.2688739E-01  0.1132751E+01
  0.2700180E-01  0.1132642E+01
  0.2711622E-01  0.1132531E+01
  0.2723063E-01  0.1132417E+01
  0.2734505E-01  0.1132302E+01
  0.2745946E-01  0.1132184E+01
  0.2757387E-01  0.1132065E+01
  0.2768829E-01  0.1131943E+01
  0.2780270E-01  0.1131820E+01
  0.2791712E-01  0.1131695E+01
  0.2803153E-01  0.1131568E+01
  0.2814595E-01  0.1131439E+01
  0.2826036E-01  0.1131308E+01
  0.2837477E-01  0.1131175E+01
  0.2848919E-01  0.1131040E+01
  0.2860360E-01  0.1130904E+01
  0.2871802E-01  0.1130766E+01
  0.2883243E-01  0.1130627E+01
  0.2894685E-01  0.1130485E+01
  0.2906126E-01  0.1130342E+01
  0.2917568E-01  0.1130198E+01
  0.2929009E-01  0.1130052E+01
  0.2940450E-01  0.1129905E+01
  0.2951892E-01  0.1129757E+01
  0.2963333E-01  0.1129607E+01
  0.2974775E-01  0.1129455E+01
  0.2986216E-01  0.1129303E+01
  0.2997658E-01  0.1129150E+01
  0.3009099E-01  0.1128995E+01
  0.3020541E-01  0.1128840E+01
  0.3031982E-01  0.1128683E+01
  0.3043423E-01  0.1128526E+01
  0.3054865E-01  0.1128368E+01
  0.3066306E-01  0.1128209E+01
  0.3077748E-01  0.1128049E+01
  0.3089189E-01  0.1127888E+01
  0.3100631E-01  0.1127727E+01
  0.3112072E-01  0.1127565E+01
  0.3123514E-01  0.1127402E+01
  0.3134955E-01  0.1127238E+01
  0.3146396E-01  0.1127074E+01
  0.3157838E-01  0.1126909E+01
  0.3169279E-01  0.1126743E+01
  0.3180721E-01  0.1126577E+01
  0.3192162E-01  0.1126410E+01
  0.3203604E-01  0.1126243E+01
  0.3215045E-01  0.1126075E+01
  0.3226486E-01  0.1125907E+01
  0.3237928E-01  0.1125738E+01
  0.3249369E-01  0.1125568E+01
  0.3260811E-01  0.1125398E+01
  0.3272252E-01  0.1125228E+01
  0.3283694E-01  0.1125057E+01
  0.3295135E-01  0.1124886E+01
  0.3306577E-01  0.1124714E+01
  0.3318018E-01  0.1124542E+01
  0.3329459E-01  0.1124370E+01
  0.3340901E-01  0.1124197E+01
  0.3352342E-01  0.1124024E+01
  0.3363784E-01  0.1123850E+01
  0.3375225E-01  0.1123676E+01
  0.3386667E-01  0.1123502E+01
  0.3398108E-01  0.1123327E+01
  0.3409550E-01  0.1123152E+01
  0.3420991E-01  0.1122976E+01
  0.3432432E-01  0.1122801E+01
  0.3443874E-01  0.1122624E+01
  0.3455315E-01  0.1122447E+01
  0.3466757E-01  0.1122271E+01
  0.3478198E-01  0.1122093E+01
  0.3489640E-01  0.1121915E+01
  0.3501081E-01  0.1121737E+01
  0.3512523E-01  0.1121558E+01
  0.3523964E-01  0.1121379E+01
  0.3535405E-01  0.1121200E+01
  0.3546847E-01  0.1121021E+01
  0.3558288E-01  0.1120841E+01
  0.3569730E-01  0.1120661E+01
  0.3581171E-01  0.1120481E+01
  0.3592613E-01  0.1120300E+01
  0.3604054E-01  0.1120119E+01
  0.3615495E-01  0.1119938E+01
  0.3626937E-01  0.1119757E+01
  0.3638378E-01  0.1119576E+01
  0.3649820E-01  0.1119394E+01
  0.3661261E-01  0.1119212E+01
  0.3672703E-01  0.1119030E+01
  0.3684144E-01  0.1118847E+01
  0.3695586E-01  0.1118665E+01
  0.3707027E-01  0.1118482E+01
  0.3718468E-01  0.1118299E+01
  0.3729910E-01  0.1118117E+01
  0.3741351E-01  0.1117934E+01
  0.3752793E-01  0.1117750E+01
  0.3764234E-01  0.1117567E+01
  0.3775676E-01  0.1117384E+01
  0.3787117E-01  0.1117200E+01
  0.3798559E-01  0.1117017E+01
  0.3810000E-01  0.1116833E+01
  0.3821441E-01  0.1116650E+01
  0.3832883E-01  0.1116466E+01
  0.3844324E-01  0.1116282E+01
  0.3855766E-01  0.1116098E+01
  0.3867207E-01  0.1115915E+01
  0.3878649E-01  0.1115731E+01
  0.3890090E-01  0.1115547E+01
  0.3901532E-01  0.1115364E+01
  0.3912973E-01  0.1115180E+01
  0.3924414E-01  0.1114996E+01
  0.3935856E-01  0.1114813E+01
  0.3947297E-01  0.1114629E+01
  0.3958739E-01  0.1114445E+01
  0.3970180E-01  0.1114262E+01
  0.3981622E-01  0.1114078E+01
  0.3993063E-01  0.1113895E+01
  0.4004505E-01  0.1113711E+01
  0.4015946E-01  0.1113527E+01
  0.4027387E-01  0.1113344E+01
  0.4038829E-01  0.1113160E+01
  0.4050270E-01  0.1112976E+01
  0.4061712E-01  0.1112792E+01
  0.4073153E-01  0.1112608E+01
  0.4084595E-01  0.1112424E+01
  0.4096036E-01  0.1112239E+01
  0.4107477E-01  0.1112055E+01
  0.4118919E-01  0.1111871E+01
  0.4130360E-01  0.1111686E+01
  0.4141802E-01  0.1111502E+01
  0.4153243E-01  0.1111317E+01
  0.4164685E-01  0.1111132E+01
  0.4176126E-01  0.1110946E+01
  0.4187568E-01  0.1110761E+01
  0.4199009E-01  0.1110575E+01
  0.4210450E-01  0.1110390E+01
  0.4221892E-01  0.1110204E+01
  0.4233333E-01  0.1110018E+01
  0.4244775E-01  0.1109831E+01
  0.4256216E-01  0.1109645E+01
  0.4267658E-01  0.1109458E+01
  0.4279099E-01  0.1109271E+01
  0.4290541E-01  0.1109084E+01
  0.4301982E-01  0.1108897E+01
  0.4313423E-01  0.1108709E+01
  0.4324865E-01  0.1108522E+01
  0.4336306E-01  0.1108334E+01
  0.4347748E-01  0.1108145E+01
  0.4359189E-01  0.1107957E+01
  0.4370631E-01  0.1107769E+01
  0.4382072E-01  0.1107580E+01
  0.4393514E-01  0.1107392E+01
  0.4404955E-01  0.1107203E+01
  0.4416396E-01  0.1107014E+01
  0.4427838E-01  0.1106825E+01
  0.4439279E-01  0.1106636E+01
  0.4450721E-01  0.1106447E+01
  0.4462162E-01  0.1106257E+01
  0.4473604E-01  0.1106068E+01
  0.4485045E-01  0.1105879E+01
  0.4496486E-01  0.1105689E+01
  0.4507928E-01  0.1105500E+01
  0.4519369E-01  0.1105310E+01
  0.4530811E-01  0.1105121E+01
  0.4542252E-01  0.1104931E+01
  0.4553694E-01  0.1104741E+01
  0.4565135E-01  0.1104552E+01
  0.4576577E-01  0.1104362E+01
  0.4588018E-01  0.1104172E+01
  0.4599459E-01  0.1103982E+01
  0.4610901E-01  0.1103792E+01
  0.4622342E-01  0.1103603E+01
  0.4633784E-01  0.1103413E+01
  0.4645225E-01  0.1103223E+01
  0.4656667E-01  0.1103034E+01
  0.4668108E-01  0.1102844E+01
  0.4679550E-01  0.1102655E+01
  0.4690991E-01  0.1102465E+01
  0.4702432E-01  0.1102276E+01
  0.4713874E-01  0.1102087E+01
  0.4725315E-01  0.1101897E+01
  0.4736757E-01  0.1101708E+01
  0.4748198E-01  0.1101519E+01
  0.4759640E-01  0.1101330E+01
  0.4771081E-01  0.1101141E+01
  0.4782523E-01  0.1100952E+01
  0.4793964E-01  0.1100763E+01
  0.4805405E-01  0.1100573E+01
  0.4816847E-01  0.1100384E+01
  0.4828288E-01  0.1100194E+01
  0.4839730E-01  0.1100005E+01
  0.4851171E-01  0.1099815E+01
  0.4862613E-01  0.1099625E+01
  0.4874054E-01  0.1099435E+01
  0.4885495E-01  0.1099245E+01
  0.4896937E-01  0.1099054E+01
  0.4908378E-01  0.1098864E+01
  0.4919820E-01  0.1098674E+01
  0.4931261E-01  0.1098484E+01
  0.4942703E-01  0.1098294E+01
  0.4954144E-01  0.1098104E+01
  0.4965586E-01  0.1097914E+01
  0.4977027E-01  0.1097724E+01
  0.4988468E-01  0.1097534E+01
  0.4999910E-01  0.1097344E+01
  0.5011351E-01  0.1097154E+01
  0.5022793E-01  0.1096964E+01
  0.5034234E-01  0.1096774E+01
  0.5045676E-01  0.1096584E+01
  0.5057117E-01  0.1096393E+01
  0.5068559E-01  0.1096202E+01
  0.5080000E-01  0.1096011E+01
  0.5091441E-01  0.1095819E+01
  0.5102883E-01  0.1095627E+01
  0.5114324E-01  0.1095434E+01
  0.5125766E-01  0.1095242E+01
  0.5137207E-01  0.1095049E+01
  0.5148649E-01  0.1094856E+01
  0.5160090E-01  0.1094663E+01
  0.5171532E-01  0.1094469E+01
  0.5182973E-01  0.1094275E+01
  0.5194414E-01  0.1094079E+01
  0.5205856E-01  0.1093884E+01
  0.5217297E-01  0.1093687E+01
  0.5228739E-01  0.1093490E+01
  0.5240180E-01  0.1093292E+01
  0.5251622E-01  0.1093095E+01
  0.5263063E-01  0.1092897E+01
  0.5274505E-01  0.1092697E+01
  0.5285946E-01  0.1092498E+01
  0.5297387E-01  0.1092298E+01
  0.5308829E-01  0.1092099E+01
  0.5320270E-01  0.1091901E+01
  0.5331712E-01  0.1091704E+01
  0.5343153E-01  0.1091508E+01
  0.5354595E-01  0.1091314E+01
  0.5366036E-01  0.1091122E+01
  0.5377477E-01  0.1090930E+01
  0.5388919E-01  0.1090740E+01
  0.5400360E-01  0.1090551E+01
  0.5411802E-01  0.1090364E+01
  0.5423243E-01  0.1090177E+01
  0.5434685E-01  0.1089993E+01
  0.5446126E-01  0.1089810E+01
  0.5457568E-01  0.1089628E+01
  0.5469009E-01  0.1089447E+01
  0.5480450E-01  0.1089267E+01
  0.5491892E-01  0.1089088E+01
  0.5503333E-01  0.1088910E+01
  0.5514775E-01  0.1088733E+01
  0.5526216E-01  0.1088557E+01
  0.5537658E-01  0.1088382E+01
  0.5549099E-01  0.1088208E+01
  0.5560541E-01  0.1088035E+01
  0.5571982E-01  0.1087863E+01
  0.5583423E-01  0.1087691E+01
  0.5594865E-01  0.1087519E+01
  0.5606306E-01  0.1087347E+01
  0.5617748E-01  0.1087175E+01
  0.5629189E-01  0.1087003E+01
  0.5640631E-01  0.1086829E+01
  0.5652072E-01  0.1086656E+01
  0.5663514E-01  0.1086482E+01
  0.5674955E-01  0.1086308E+01
  0.5686396E-01  0.1086133E+01
  0.5697838E-01  0.1085957E+01
  0.5709279E-01  0.1085781E+01
  0.5720721E-01  0.1085604E+01
  0.5732162E-01  0.1085427E+01
  0.5743604E-01  0.1085248E+01
  0.5755045E-01  0.1085069E+01
  0.5766486E-01  0.1084889E+01
  0.5777928E-01  0.1084708E+01
  0.5789369E-01  0.1084526E+01
  0.5800811E-01  0.1084344E+01
  0.5812252E-01  0.1084160E+01
  0.5823694E-01  0.1083976E+01
  0.5835135E-01  0.1083790E+01
  0.5846577E-01  0.1083604E+01
  0.5858018E-01  0.1083417E+01
  0.5869459E-01  0.1083230E+01
  0.5880901E-01  0.1083042E+01
  0.5892342E-01  0.1082853E+01
  0.5903784E-01  0.1082665E+01
  0.5915225E-01  0.1082476E+01
  0.5926667E-01  0.1082287E+01
  0.5938108E-01  0.1082097E+01
  0.5949550E-01  0.1081908E+01
  0.5960991E-01  0.1081718E+01
  0.5972432E-01  0.1081528E+01
  0.5983874E-01  0.1081338E+01
  0.5995315E-01  0.1081148E+01
  0.6006757E-01  0.1080958E+01
  0.6018198E-01  0.1080769E+01
  0.6029640E-01  0.1080580E+01
  0.6041081E-01  0.1080391E+01
  0.6052523E-01  0.1080203E+01
  0.6063964E-01  0.1080016E+01
  0.6075405E-01  0.1079829E+01
  0.6086847E-01  0.1079643E+01
  0.6098288E-01  0.1079457E+01
  0.6109730E-01  0.1079272E+01
  0.6121171E-01  0.1079088E+01
  0.6132613E-01  0.1078904E+01
  0.6144054E-01  0.1078721E+01
  0.6155495E-01  0.1078539E+01
  0.6166937E-01  0.1078358E+01
  0.6178378E-01  0.1078177E+01
  0.6189820E-01  0.1077997E+01
  0.6201261E-01  0.1077818E+01
  0.6212703E-01  0.1077640E+01
  0.6224144E-01  0.1077462E+01
  0.6235586E-01  0.1077286E+01
  0.6247027E-01  0.1077109E+01
  0.6258468E-01  0.1076934E+01
  0.6269910E-01  0.1076760E+01
  0.6281351E-01  0.1076586E+01
  0.6292793E-01  0.1076412E+01
  0.6304234E-01  0.1076240E+01
  0.6315676E-01  0.1076068E+01
  0.6327117E-01  0.1075896E+01
  0.6338559E-01  0.1075725E+01
  0.6350000E-01  0.1075555E+01
  0.6361441E-01  0.1075385E+01
  0.6372883E-01  0.1075215E+01
  0.6384324E-01  0.1075046E+01
  0.6395766E-01  0.1074878E+01
  0.6407207E-01  0.1074709E+01
  0.6418649E-01  0.1074542E+01
  0.6430090E-01  0.1074375E+01
  0.6441532E-01  0.1074208E+01
  0.6452973E-01  0.1074041E+01
  0.6464414E-01  0.1073875E+01
  0.6475856E-01  0.1073708E+01
  0.6487297E-01  0.1073543E+01
  0.6498739E-01  0.1073377E+01
  0.6510180E-01  0.1073212E+01
  0.6521622E-01  0.1073046E+01
  0.6533063E-01  0.1072882E+01
  0.6544505E-01  0.1072717E+01
  0.6555946E-01  0.1072552E+01
  0.6567387E-01  0.1072387E+01
  0.6578829E-01  0.1072223E+01
  0.6590270E-01  0.1072059E+01
  0.6601712E-01  0.1071896E+01
  0.6613153E-01  0.1071732E+01
  0.6624595E-01  0.1071568E+01
  0.6636036E-01  0.1071405E+01
  0.6647477E-01  0.1071242E+01
  0.6658919E-01  0.1071079E+01
  0.6670360E-01  0.1070917E+01
  0.6681802E-01  0.1070754E+01
  0.6693243E-01  0.1070592E+01
  0.6704685E-01  0.1070430E+01
  0.6716126E-01  0.1070268E+01
  0.6727568E-01  0.1070106E+01
  0.6739009E-01  0.1069944E+01
  0.6750450E-01  0.1069782E+01
  0.6761892E-01  0.1069621E+01
  0.6773333E-01  0.1069459E+01
  0.6784775E-01  0.1069298E+01
  0.6796216E-01  0.1069136E+01
  0.6807658E-01  0.1068975E+01
  0.6819099E-01  0.1068814E+01
  0.6830541E-01  0.1068653E+01
  0.6841982E-01  0.1068492E+01
  0.6853423E-01  0.1068331E+01
  0.6864865E-01  0.1068171E+01
  0.6876306E-01  0.1068010E+01
  0.6887748E-01  0.1067850E+01
  0.6899189E-01  0.1067689E+01
  0.6910631E-01  0.1067529E+01
  0.6922072E-01  0.1067369E+01
  0.6933514E-01  0.1067209E+01
  0.6944955E-01  0.1067049E+01
  0.6956396E-01  0.1066889E+01
  0.6967838E-01  0.1066729E+01
  0.6979279E-01  0.1066569E+01
  0.6990721E-01  0.1066410E+01
  0.7002162E-01  0.1066250E+01
  0.7013604E-01  0.1066091E+01
  0.7025045E-01  0.1065932E+01
  0.7036486E-01  0.1065772E+01
  0.7047928E-01  0.1065613E+01
  0.7059369E-01  0.1065455E+01
  0.7070811E-01  0.1065296E+01
  0.7082252E-01  0.1065137E+01
  0.7093694E-01  0.1064978E+01
  0.7105135E-01  0.1064819E+01
  0.7116577E-01  0.1064661E+01
  0.7128018E-01  0.1064503E+01
  0.7139459E-01  0.1064344E+01
  0.7150901E-01  0.1064186E+01
  0.7162342E-01  0.1064027E+01
  0.7173784E-01  0.1063869E+01
  0.7185225E-01  0.1063711E+01
  0.7196667E-01  0.1063552E+01
  0.7208108E-01  0.1063394E+01
  0.7219550E-01  0.1063236E+01
  0.7230991E-01  0.1063077E+01
  0.7242432E-01  0.1062919E+01
  0.7253874E-01  0.1062761E+01
  0.7265315E-01  0.1062603E+01
  0.7276757E-01  0.1062445E+01
  0.7288198E-01  0.1062287E+01
  0.7299640E-01  0.1062129E+01
  0.7311081E-01  0.1061970E+01
  0.7322523E-01  0.1061812E+01
  0.7333964E-01  0.1061654E+01
  0.7345405E-01  0.1061496E+01
  0.7356847E-01  0.1061338E+01
  0.7368288E-01  0.1061181E+01
  0.7379730E-01  0.1061023E+01
  0.7391171E-01  0.1060865E+01
  0.7402613E-01  0.1060707E+01
  0.7414054E-01  0.1060549E+01
  0.7425495E-01  0.1060391E+01
  0.7436937E-01  0.1060233E+01
  0.7448378E-01  0.1060076E+01
  0.7459820E-01  0.1059918E+01
  0.7471261E-01  0.1059760E+01
  0.7482703E-01  0.1059602E+01
  0.7494144E-01  0.1059444E+01
  0.7505586E-01  0.1059286E+01
  0.7517027E-01  0.1059129E+01
  0.7528468E-01  0.1058971E+01
  0.7539910E-01  0.1058813E+01
  0.7551351E-01  0.1058655E+01
  0.7562793E-01  0.1058497E+01
  0.7574234E-01  0.1058339E+01
  0.7585676E-01  0.1058182E+01
  0.7597117E-01  0.1058024E+01
  0.7608559E-01  0.1057866E+01
  0.7620000E-01  0.1057708E+01
  0.7631441E-01  0.1057551E+01
  0.7642883E-01  0.1057393E+01
  0.7654324E-01  0.1057235E+01
  0.7665766E-01  0.1057078E+01
  0.7677207E-01  0.1056920E+01
  0.7688649E-01  0.1056763E+01
  0.7700090E-01  0.1056606E+01
  0.7711532E-01  0.1056448E+01
  0.7722973E-01  0.1056291E+01
  0.7734414E-01  0.1056134E+01
  0.7745856E-01  0.1055976E+01
  0.7757297E-01  0.1055819E+01
  0.7768739E-01  0.1055662E+01
  0.7780180E-01  0.1055506E+01
  0.7791622E-01  0.1055349E+01
  0.7803063E-01  0.1055192E+01
  0.7814505E-01  0.1055035E+01
  0.7825946E-01  0.1054879E+01
  0.7837387E-01  0.1054722E+01
  0.7848829E-01  0.1054566E+01
  0.7860270E-01  0.1054410E+01
  0.7871712E-01  0.1054253E+01
  0.7883153E-01  0.1054097E+01
  0.7894595E-01  0.1053941E+01
  0.7906036E-01  0.1053785E+01
  0.7917477E-01  0.1053629E+01
  0.7928919E-01  0.1053473E+01
  0.7940360E-01  0.1053318E+01
  0.7951802E-01  0.1053162E+01
  0.7963243E-01  0.1053007E+01
  0.7974685E-01  0.1052851E+01
  0.7986126E-01  0.1052696E+01
  0.7997568E-01  0.1052541E+01
  0.8009009E-01  0.1052386E+01
  0.8020450E-01  0.1052231E+01
  0.8031892E-01  0.1052076E+01
  0.8043333E-01  0.1051922E+01
  0.8054775E-01  0.1051768E+01
  0.8066216E-01  0.1051613E+01
  0.8077658E-01  0.1051459E+01
  0.8089099E-01  0.1051305E+01
  0.8100541E-01  0.1051151E+01
  0.8111982E-01  0.1050998E+01
  0.8123423E-01  0.1050844E+01
  0.8134865E-01  0.1050691E+01
  0.8146306E-01  0.1050537E+01
  0.8157748E-01  0.1050384E+01
  0.8169189E-01  0.1050231E+01
  0.8180631E-01  0.1050078E+01
  0.8192072E-01  0.1049925E+01
  0.8203514E-01  0.1049773E+01
  0.8214955E-01  0.1049620E+01
  0.8226396E-01  0.1049468E+01
  0.8237838E-01  0.1049316E+01
  0.8249279E-01  0.1049163E+01
  0.8260721E-01  0.1049011E+01
  0.8272162E-01  0.1048859E+01
  0.8283604E-01  0.1048708E+01
  0.8295045E-01  0.1048556E+01
  0.8306486E-01  0.1048404E+01
  0.8317928E-01  0.1048253E+01
  0.8329369E-01  0.1048101E+01
  0.8340811E-01  0.1047950E+01
  0.8352252E-01  0.1047799E+01
  0.8363694E-01  0.1047648E+01
  0.8375135E-01  0.1047497E+01
  0.8386577E-01  0.1047346E+01
  0.8398018E-01  0.1047195E+01
  0.8409459E-01  0.1047044E+01
  0.8420901E-01  0.1046893E+01
  0.8432342E-01  0.1046743E+01
  0.8443784E-01  0.1046592E+01
  0.8455225E-01  0.1046442E+01
  0.8466667E-01  0.1046292E+01
  0.8478108E-01  0.1046141E+01
  0.8489550E-01  0.1045991E+01
  0.8500991E-01  0.1045840E+01
  0.8512432E-01  0.1045690E+01
  0.8523874E-01  0.1045540E+01
  0.8535315E-01  0.1045390E+01
  0.8546757E-01  0.1045240E+01
  0.8558198E-01  0.1045090E+01
  0.8569640E-01  0.1044939E+01
  0.8581081E-01  0.1044790E+01
  0.8592523E-01  0.1044639E+01
  0.8603964E-01  0.1044490E+01
  0.8615405E-01  0.1044340E+01
  0.8626847E-01  0.1044190E+01
  0.8638288E-01  0.1044040E+01
  0.8649730E-01  0.1043890E+01
  0.8661171E-01  0.1043741E+01
  0.8672613E-01  0.1043591E+01
  0.8684054E-01  0.1043441E+01
  0.8695495E-01  0.1043292E+01
  0.8706937E-01  0.1043142E+01
  0.8718378E-01  0.1042993E+01
  0.8729820E-01  0.1042843E+01
  0.8741261E-01  0.1042694E+01
  0.8752703E-01  0.1042544E+01
  0.8764144E-01  0.1042395E+01
  0.8775586E-01  0.1042245E+01
  0.8787027E-01  0.1042096E+01
  0.8798468E-01  0.1041947E+01
  0.8809910E-01  0.1041797E+01
  0.8821351E-01  0.1041648E+01
  0.8832793E-01  0.1041498E+01
  0.8844234E-01  0.1041349E+01
  0.8855676E-01  0.1041200E+01
  0.8867117E-01  0.1041050E+01
  0.8878559E-01  0.1040900E+01
  0.8890000E-01  0.1040751E+01
  0.8901441E-01  0.1040601E+01
  0.8912883E-01  0.1040451E+01
  0.8924324E-01  0.1040301E+01
  0.8935766E-01  0.1040151E+01
  0.8947207E-01  0.1040001E+01
  0.8958649E-01  0.1039850E+01
  0.8970090E-01  0.1039700E+01
  0.8981532E-01  0.1039549E+01
  0.8992973E-01  0.1039398E+01
  0.9004414E-01  0.1039247E+01
  0.9015856E-01  0.1039095E+01
  0.9027297E-01  0.1038944E+01
  0.9038739E-01  0.1038792E+01
  0.9050180E-01  0.1038639E+01
  0.9061622E-01  0.1038487E+01
  0.9073063E-01  0.1038333E+01
  0.9084505E-01  0.1038180E+01
  0.9095946E-01  0.1038026E+01
  0.9107387E-01  0.1037872E+01
  0.9118829E-01  0.1037717E+01
  0.9130270E-01  0.1037562E+01
  0.9141712E-01  0.1037407E+01
  0.9153153E-01  0.1037250E+01
  0.9164595E-01  0.1037094E+01
  0.9176036E-01  0.1036936E+01
  0.9187477E-01  0.1036779E+01
  0.9198919E-01  0.1036620E+01
  0.9210360E-01  0.1036461E+01
  0.9221802E-01  0.1036301E+01
  0.9233243E-01  0.1036141E+01
  0.9244685E-01  0.1035980E+01
  0.9256126E-01  0.1035818E+01
  0.9267568E-01  0.1035655E+01
  0.9279009E-01  0.1035491E+01
  0.9290450E-01  0.1035327E+01
  0.9301892E-01  0.1035161E+01
  0.9313333E-01  0.1034994E+01
  0.9324775E-01  0.1034827E+01
  0.9336216E-01  0.1034658E+01
  0.9347658E-01  0.1034489E+01
  0.9359099E-01  0.1034318E+01
  0.9370541E-01  0.1034145E+01
  0.9381982E-01  0.1033972E+01
  0.9393423E-01  0.1033797E+01
  0.9404865E-01  0.1033620E+01
  0.9416306E-01  0.1033443E+01
  0.9427748E-01  0.1033263E+01
  0.9439189E-01  0.1033082E+01
  0.9450631E-01  0.1032898E+01
  0.9462072E-01  0.1032713E+01
  0.9473514E-01  0.1032526E+01
  0.9484955E-01  0.1032337E+01
  0.9496396E-01  0.1032145E+01
  0.9507838E-01  0.1031952E+01
  0.9519279E-01  0.1031755E+01
  0.9530721E-01  0.1031556E+01
  0.9542162E-01  0.1031354E+01
  0.9553604E-01  0.1031149E+01
  0.9565045E-01  0.1030941E+01
  0.9576486E-01  0.1030730E+01
  0.9587928E-01  0.1030515E+01
  0.9599369E-01  0.1030296E+01
  0.9610811E-01  0.1030074E+01
  0.9622252E-01  0.1029848E+01
  0.9633694E-01  0.1029617E+01
  0.9645135E-01  0.1029382E+01
  0.9656577E-01  0.1029141E+01
  0.9668018E-01  0.1028896E+01
  0.9679459E-01  0.1028646E+01
  0.9690901E-01  0.1028390E+01
  0.9702342E-01  0.1028129E+01
  0.9713784E-01  0.1027861E+01
  0.9725225E-01  0.1027588E+01
  0.9736667E-01  0.1027308E+01
  0.9748108E-01  0.1027020E+01
  0.9759550E-01  0.1026726E+01
  0.9770991E-01  0.1026424E+01
  0.9782432E-01  0.1026114E+01
  0.9793874E-01  0.1025797E+01
  0.9805315E-01  0.1025471E+01
  0.9816757E-01  0.1025136E+01
  0.9828198E-01  0.1024792E+01
  0.9839640E-01  0.1024439E+01
  0.9851081E-01  0.1024075E+01
  0.9862523E-01  0.1023702E+01
  0.9873964E-01  0.1023318E+01
  0.9885405E-01  0.1022923E+01
  0.9896847E-01  0.1022517E+01
  0.9908288E-01  0.1022099E+01
  0.9919730E-01  0.1021670E+01
  0.9931171E-01  0.1021228E+01
  0.9942613E-01  0.1020773E+01
  0.9954054E-01  0.1020305E+01
  0.9965495E-01  0.1019823E+01
  0.9976937E-01  0.1019328E+01
  0.9988378E-01  0.1018818E+01
  0.9999820E-01  0.1018293E+01
  0.1001126E+00  0.1017754E+01
  0.1002270E+00  0.1017200E+01
  0.1003414E+00  0.1016630E+01
  0.1004559E+00  0.1016044E+01
  0.1005703E+00  0.1015441E+01
  0.1006847E+00  0.1014822E+01
  0.1007991E+00  0.1014186E+01
  0.1009135E+00  0.1013533E+01
  0.1010279E+00  0.1012863E+01
  0.1011423E+00  0.1012175E+01
  0.1012568E+00  0.1011470E+01
  0.1013712E+00  0.1010747E+01
  0.1014856E+00  0.1010005E+01
  0.1016000E+00  0.1009246E+01
  0.1017144E+00  0.1008469E+01
  0.1018288E+00  0.1007674E+01
  0.1019432E+00  0.1006860E+01
  0.1020577E+00  0.1006029E+01
  0.1021721E+00  0.1005180E+01
  0.1022865E+00  0.1004313E+01
  0.1024009E+00  0.1003429E+01
  0.1025153E+00  0.1002528E+01
  0.1026297E+00  0.1001609E+01
  0.1027441E+00  0.1000673E+01
  0.1028586E+00  0.9997216E+00
  0.1029730E+00  0.9987533E+00
  0.1030874E+00  0.9977699E+00
  0.1032018E+00  0.9967715E+00
  0.1033162E+00  0.9957583E+00
  0.1034306E+00  0.9947310E+00
  0.1035450E+00  0.9936900E+00
  0.1036595E+00  0.9926354E+00
  0.1037739E+00  0.9915680E+00
  0.1038883E+00  0.9904884E+00
  0.1040027E+00  0.9893975E+00
  0.1041171E+00  0.9882956E+00
  0.1042315E+00  0.9871837E+00
  0.1043459E+00  0.9860618E+00
  0.1044604E+00  0.9849301E+00
  0.1045748E+00  0.9837900E+00
  0.1046892E+00  0.9826420E+00
  0.1048036E+00  0.9814862E+00
  0.1049180E+00  0.9803238E+00
  0.1050324E+00  0.9791549E+00
  0.1051468E+00  0.9779803E+00
  0.1052613E+00  0.9768003E+00
  0.1053757E+00  0.9756160E+00
  0.1054901E+00  0.9744270E+00
  0.1056045E+00  0.9732348E+00
  0.1057189E+00  0.9720392E+00
  0.1058333E+00  0.9708411E+00
  0.1059477E+00  0.9696408E+00
  0.1060622E+00  0.9684386E+00
  0.1061766E+00  0.9672354E+00
  0.1062910E+00  0.9660313E+00
  0.1064054E+00  0.9648270E+00
  0.1065198E+00  0.9636226E+00
  0.1066342E+00  0.9624188E+00
  0.1067486E+00  0.9612157E+00
  0.1068631E+00  0.9600138E+00
  0.1069775E+00  0.9588138E+00
  0.1070919E+00  0.9576154E+00
  0.1072063E+00  0.9564188E+00
  0.1073207E+00  0.9552251E+00
  0.1074351E+00  0.9540339E+00
  0.1075495E+00  0.9528455E+00
  0.1076640E+00  0.9516602E+00
  0.1077784E+00  0.9504787E+00
  0.1078928E+00  0.9493003E+00
  0.1080072E+00  0.9481254E+00
  0.1081216E+00  0.9469542E+00
  0.1082360E+00  0.9457871E+00
  0.1083505E+00  0.9446238E+00
  0.1084649E+00  0.9434646E+00
  0.1085793E+00  0.9423094E+00
  0.1086937E+00  0.9411583E+00
  0.1088081E+00  0.9400113E+00
  0.1089225E+00  0.9388680E+00
  0.1090369E+00  0.9377292E+00
  0.1091514E+00  0.9365940E+00
  0.1092658E+00  0.9354630E+00
  0.1093802E+00  0.9343361E+00
  0.1094946E+00  0.9332132E+00
  0.1096090E+00  0.9320937E+00
  0.1097234E+00  0.9309777E+00
  0.1098378E+00  0.9298649E+00
  0.1099523E+00  0.9287549E+00