variables="x","y","u","v","uv","uu","vv"
zone, t="1"
999 999 999 999 999 999 999
zone, t="2"
999 999 999 999 999 999 999
zone, t="3"
999 999 999 999 999 999 999
zone, t="4"
999 999 999 999 999 999 999
zone, t="5"
999 999 999 999 999 999 999
zone, t="6"
999 999 999 999 999 999 999
