# nondimensional turbulent shear stress data from A3D, Smits convex curvature case, GLVY model
# Note: U_ref=31.9 m/s
VARIABLES = "y, m","u'v'/(U_ref^2)"
ZONE T="x=0.030"
  0.0000000E+00  0.0000000E+00
  0.1144144E-03 -0.1152976E-02
  0.2288288E-03 -0.1969747E-02
  0.3432432E-03 -0.2371227E-02
  0.4576577E-03 -0.2718842E-02
  0.5720721E-03 -0.3051666E-02
  0.6864865E-03 -0.3359919E-02
  0.8009009E-03 -0.3633639E-02
  0.9153153E-03 -0.3861613E-02
  0.1029730E-02 -0.3982133E-02
  0.1144144E-02 -0.3989355E-02
  0.1258559E-02 -0.3938300E-02
  0.1372973E-02 -0.3844556E-02
  0.1487387E-02 -0.3809528E-02
  0.1601802E-02 -0.3808998E-02
  0.1716216E-02 -0.3818349E-02
  0.1830631E-02 -0.3819318E-02
  0.1945045E-02 -0.3803793E-02
  0.2059459E-02 -0.3756685E-02
  0.2173874E-02 -0.3661794E-02
  0.2288288E-02 -0.3508060E-02
  0.2402703E-02 -0.3288941E-02
  0.2517117E-02 -0.3005143E-02
  0.2631532E-02 -0.2666242E-02
  0.2745946E-02 -0.2297530E-02
  0.2860360E-02 -0.1936403E-02
  0.2974775E-02 -0.1613286E-02
  0.3089189E-02 -0.1339483E-02
  0.3203604E-02 -0.1113036E-02
  0.3318018E-02 -0.9274816E-03
  0.3432432E-02 -0.7761405E-03
  0.3546847E-02 -0.6528601E-03
  0.3661261E-02 -0.5522391E-03
  0.3775676E-02 -0.4696925E-03
  0.3890090E-02 -0.4014189E-03
  0.4004505E-02 -0.3443684E-03
  0.4118919E-02 -0.2961362E-03
  0.4233333E-02 -0.2548508E-03
  0.4347748E-02 -0.2190860E-03
  0.4462162E-02 -0.1877581E-03
  0.4576577E-02 -0.1600702E-03
  0.4690991E-02 -0.1354216E-03
  0.4805405E-02 -0.1133741E-03
  0.4919820E-02 -0.9359475E-04
  0.5034234E-02 -0.7581811E-04
  0.5148649E-02 -0.5982899E-04
  0.5263063E-02 -0.4543582E-04
  0.5377477E-02 -0.3247022E-04
  0.5491892E-02 -0.2078097E-04
  0.5606306E-02 -0.1022926E-04
  0.5720721E-02 -0.6964992E-06
  0.5835135E-02  0.7923759E-05
  0.5949550E-02  0.1571941E-04
  0.6063964E-02  0.2276255E-04
  0.6178378E-02  0.2911295E-04
  0.6292793E-02  0.3481978E-04
  0.6407207E-02  0.3991934E-04
  0.6521622E-02  0.4445287E-04
  0.6636036E-02  0.4844986E-04
  0.6750450E-02  0.5194633E-04
  0.6864865E-02  0.5497747E-04
  0.6979279E-02  0.5757920E-04
  0.7093694E-02  0.5978738E-04
  0.7208108E-02  0.6164073E-04
  0.7322523E-02  0.6317584E-04
  0.7436937E-02  0.6442757E-04
  0.7551351E-02  0.6543308E-04
  0.7665766E-02  0.6622492E-04
  0.7780180E-02  0.6683544E-04
  0.7894595E-02  0.6729143E-04
  0.8009009E-02  0.6762510E-04
  0.8123423E-02  0.6786559E-04
  0.8237838E-02  0.6803776E-04
  0.8352252E-02  0.6815178E-04
  0.8466667E-02  0.6821235E-04
  0.8581081E-02  0.6822107E-04
  0.8695495E-02  0.6816632E-04
  0.8809910E-02  0.6804922E-04
  0.8924324E-02  0.6787069E-04
  0.9038739E-02  0.6760890E-04
  0.9153153E-02  0.6724914E-04
  0.9267568E-02  0.6674977E-04
  0.9381982E-02  0.6610411E-04
  0.9496396E-02  0.6530979E-04
  0.9610811E-02  0.6433294E-04
  0.9725225E-02  0.6316891E-04
  0.9839640E-02  0.6185714E-04
  0.9954054E-02  0.6041841E-04
  0.1006847E-01  0.5890395E-04
  0.1018288E-01  0.5734782E-04
  0.1029730E-01  0.5577675E-04
  0.1041171E-01  0.5426916E-04
  0.1052613E-01  0.5288530E-04
  0.1064054E-01  0.5161380E-04
  0.1075495E-01  0.5047482E-04
  0.1086937E-01  0.4945413E-04
  0.1098378E-01  0.4854570E-04
  0.1109820E-01  0.4774500E-04
  0.1121261E-01  0.4704735E-04
  0.1132703E-01  0.4642286E-04
  0.1144144E-01  0.4586002E-04
  0.1155586E-01  0.4535382E-04
  0.1167027E-01  0.4489186E-04
  0.1178468E-01  0.4446499E-04
  0.1189910E-01  0.4406451E-04
  0.1201351E-01  0.4368232E-04
  0.1212793E-01  0.4330973E-04
  0.1224234E-01  0.4294066E-04
  0.1235676E-01  0.4256892E-04
  0.1247117E-01  0.4218608E-04
  0.1258559E-01  0.4178468E-04
  0.1270000E-01  0.4135712E-04
  0.1281441E-01  0.4089555E-04
  0.1292883E-01  0.4039719E-04
  0.1304324E-01  0.3984769E-04
  0.1315766E-01  0.3924663E-04
  0.1327207E-01  0.3857784E-04
  0.1338649E-01  0.3783177E-04
  0.1350090E-01  0.3701603E-04
  0.1361532E-01  0.3612412E-04
  0.1372973E-01  0.3516458E-04
  0.1384414E-01  0.3413219E-04
  0.1395856E-01  0.3303063E-04
  0.1407297E-01  0.3187536E-04
  0.1418739E-01  0.3069198E-04
  0.1430180E-01  0.2948445E-04
  0.1441622E-01  0.2829525E-04
  0.1453063E-01  0.2713462E-04
  0.1464505E-01  0.2600682E-04
  0.1475946E-01  0.2493216E-04
  0.1487387E-01  0.2391539E-04
  0.1498829E-01  0.2297814E-04
  0.1510270E-01  0.2212746E-04
  0.1521712E-01  0.2136184E-04
  0.1533153E-01  0.2067213E-04
  0.1544595E-01  0.2006700E-04
  0.1556036E-01  0.1953113E-04
  0.1567477E-01  0.1905535E-04
  0.1578919E-01  0.1864461E-04
  0.1590360E-01  0.1829034E-04
  0.1601802E-01  0.1798810E-04
  0.1613243E-01  0.1773141E-04
  0.1624685E-01  0.1751156E-04
  0.1636126E-01  0.1732639E-04
  0.1647568E-01  0.1717230E-04
  0.1659009E-01  0.1704399E-04
  0.1670450E-01  0.1693827E-04
  0.1681892E-01  0.1685071E-04
  0.1693333E-01  0.1677781E-04
  0.1704775E-01  0.1671679E-04
  0.1716216E-01  0.1666582E-04
  0.1727658E-01  0.1662333E-04
  0.1739099E-01  0.1658654E-04
  0.1750541E-01  0.1655515E-04
  0.1761982E-01  0.1652782E-04
  0.1773423E-01  0.1650187E-04
  0.1784865E-01  0.1647655E-04
  0.1796306E-01  0.1645104E-04
  0.1807748E-01  0.1642367E-04
  0.1819189E-01  0.1639409E-04
  0.1830631E-01  0.1636117E-04
  0.1842072E-01  0.1632309E-04
  0.1853514E-01  0.1627917E-04
  0.1864955E-01  0.1622873E-04
  0.1876396E-01  0.1617013E-04
  0.1887838E-01  0.1610254E-04
  0.1899279E-01  0.1602500E-04
  0.1910721E-01  0.1593740E-04
  0.1922162E-01  0.1583793E-04
  0.1933604E-01  0.1572300E-04
  0.1945045E-01  0.1559202E-04
  0.1956486E-01  0.1544384E-04
  0.1967928E-01  0.1527571E-04
  0.1979369E-01  0.1508933E-04
  0.1990811E-01  0.1488528E-04
  0.2002252E-01  0.1466007E-04
  0.2013694E-01  0.1441059E-04
  0.2025135E-01  0.1414086E-04
  0.2036577E-01  0.1384834E-04
  0.2048018E-01  0.1353240E-04
  0.2059459E-01  0.1319380E-04
  0.2070901E-01  0.1283526E-04
  0.2082342E-01  0.1246369E-04
  0.2093784E-01  0.1208470E-04
  0.2105225E-01  0.1169662E-04
  0.2116667E-01  0.1130658E-04
  0.2128108E-01  0.1091794E-04
  0.2139550E-01  0.1052843E-04
  0.2150991E-01  0.1014253E-04
  0.2162432E-01  0.9766603E-05
  0.2173874E-01  0.9404767E-05
  0.2185315E-01  0.9055376E-05
  0.2196757E-01  0.8724692E-05
  0.2208198E-01  0.8414931E-05
  0.2219640E-01  0.8126231E-05
  0.2231081E-01  0.7858690E-05
  0.2242523E-01  0.7610080E-05
  0.2253964E-01  0.7377662E-05
  0.2265405E-01  0.7164434E-05
  0.2276847E-01  0.6967643E-05
  0.2288288E-01  0.6785041E-05
  0.2299730E-01  0.6618693E-05
  0.2311171E-01  0.6467909E-05
  0.2322613E-01  0.6331164E-05
  0.2334054E-01  0.6206770E-05
  0.2345495E-01  0.6094025E-05
  0.2356937E-01  0.5992347E-05
  0.2368378E-01  0.5900196E-05
  0.2379820E-01  0.5817288E-05
  0.2391261E-01  0.5743180E-05
  0.2402703E-01  0.5677138E-05
  0.2414144E-01  0.5618508E-05
  0.2425586E-01  0.5566686E-05
  0.2437027E-01  0.5520947E-05
  0.2448468E-01  0.5480778E-05
  0.2459910E-01  0.5445753E-05
  0.2471351E-01  0.5415548E-05
  0.2482793E-01  0.5389756E-05
  0.2494234E-01  0.5367775E-05
  0.2505676E-01  0.5348912E-05
  0.2517117E-01  0.5332516E-05
  0.2528559E-01  0.5318557E-05
  0.2540000E-01  0.5306639E-05
  0.2551441E-01  0.5296422E-05
  0.2562883E-01  0.5287701E-05
  0.2574324E-01  0.5280270E-05
  0.2585766E-01  0.5274126E-05
  0.2597207E-01  0.5269393E-05
  0.2608649E-01  0.5266247E-05
  0.2620090E-01  0.5264430E-05
  0.2631532E-01  0.5264016E-05
  0.2642973E-01  0.5265146E-05
  0.2654414E-01  0.5267704E-05
  0.2665856E-01  0.5271724E-05
  0.2677297E-01  0.5277244E-05
  0.2688739E-01  0.5284298E-05
  0.2700180E-01  0.5292933E-05
  0.2711622E-01  0.5303309E-05
  0.2723063E-01  0.5315585E-05
  0.2734505E-01  0.5329784E-05
  0.2745946E-01  0.5345936E-05
  0.2757387E-01  0.5364042E-05
  0.2768829E-01  0.5384360E-05
  0.2780270E-01  0.5407338E-05
  0.2791712E-01  0.5433516E-05
  0.2803153E-01  0.5463411E-05
  0.2814595E-01  0.5496953E-05
  0.2826036E-01  0.5534491E-05
  0.2837477E-01  0.5576101E-05
  0.2848919E-01  0.5621209E-05
  0.2860360E-01  0.5669903E-05
  0.2871802E-01  0.5722643E-05
  0.2883243E-01  0.5780067E-05
  0.2894685E-01  0.5842813E-05
  0.2906126E-01  0.5911219E-05
  0.2917568E-01  0.5984482E-05
  0.2929009E-01  0.6062641E-05
  0.2940450E-01  0.6145513E-05
  0.2951892E-01  0.6233202E-05
  0.2963333E-01  0.6325491E-05
  0.2974775E-01  0.6421729E-05
  0.2986216E-01  0.6520997E-05
  0.2997658E-01  0.6622282E-05
  0.3009099E-01  0.6724717E-05
  0.3020541E-01  0.6828368E-05
  0.3031982E-01  0.6932573E-05
  0.3043423E-01  0.7037474E-05
  0.3054865E-01  0.7143169E-05
  0.3066306E-01  0.7249039E-05
  0.3077748E-01  0.7354081E-05
  0.3089189E-01  0.7457104E-05
  0.3100631E-01  0.7556946E-05
  0.3112072E-01  0.7652677E-05
  0.3123514E-01  0.7744659E-05
  0.3134955E-01  0.7832714E-05
  0.3146396E-01  0.7916663E-05
  0.3157838E-01  0.7996072E-05
  0.3169279E-01  0.8070679E-05
  0.3180721E-01  0.8140609E-05
  0.3192162E-01  0.8206236E-05
  0.3203604E-01  0.8268051E-05
  0.3215045E-01  0.8326517E-05
  0.3226486E-01  0.8381754E-05
  0.3237928E-01  0.8433374E-05
  0.3249369E-01  0.8481520E-05
  0.3260811E-01  0.8525972E-05
  0.3272252E-01  0.8566867E-05
  0.3283694E-01  0.8604436E-05
  0.3295135E-01  0.8638958E-05
  0.3306577E-01  0.8670731E-05
  0.3318018E-01  0.8700040E-05
  0.3329459E-01  0.8727118E-05
  0.3340901E-01  0.8752028E-05
  0.3352342E-01  0.8774829E-05
  0.3363784E-01  0.8795568E-05
  0.3375225E-01  0.8814332E-05
  0.3386667E-01  0.8831263E-05
  0.3398108E-01  0.8846519E-05
  0.3409550E-01  0.8860257E-05
  0.3420991E-01  0.8872631E-05
  0.3432432E-01  0.8883775E-05
  0.3443874E-01  0.8893796E-05
  0.3455315E-01  0.8902740E-05
  0.3466757E-01  0.8910648E-05
  0.3478198E-01  0.8917617E-05
  0.3489640E-01  0.8923749E-05
  0.3501081E-01  0.8929100E-05
  0.3512523E-01  0.8933693E-05
  0.3523964E-01  0.8937528E-05
  0.3535405E-01  0.8940597E-05
  0.3546847E-01  0.8942899E-05
  0.3558288E-01  0.8944448E-05
  0.3569730E-01  0.8945314E-05
  0.3581171E-01  0.8945569E-05
  0.3592613E-01  0.8945185E-05
  0.3604054E-01  0.8944135E-05
  0.3615495E-01  0.8942432E-05
  0.3626937E-01  0.8940126E-05
  0.3638378E-01  0.8937285E-05
  0.3649820E-01  0.8933974E-05
  0.3661261E-01  0.8930242E-05
  0.3672703E-01  0.8926106E-05
  0.3684144E-01  0.8921524E-05
  0.3695586E-01  0.8916394E-05
  0.3707027E-01  0.8910726E-05
  0.3718468E-01  0.8904554E-05
  0.3729910E-01  0.8897848E-05
  0.3741351E-01  0.8890530E-05
  0.3752793E-01  0.8882488E-05
  0.3764234E-01  0.8873596E-05
  0.3775676E-01  0.8863731E-05
  0.3787117E-01  0.8852789E-05
  0.3798559E-01  0.8840707E-05
  0.3810000E-01  0.8827489E-05
  0.3821441E-01  0.8813127E-05
  0.3832883E-01  0.8797556E-05
  0.3844324E-01  0.8780703E-05
  0.3855766E-01  0.8762498E-05
  0.3867207E-01  0.8742873E-05
  0.3878649E-01  0.8721761E-05
  0.3890090E-01  0.8699095E-05
  0.3901532E-01  0.8674809E-05
  0.3912973E-01  0.8648837E-05
  0.3924414E-01  0.8621112E-05
  0.3935856E-01  0.8591573E-05
  0.3947297E-01  0.8560198E-05
  0.3958739E-01  0.8526958E-05
  0.3970180E-01  0.8491794E-05
  0.3981622E-01  0.8454625E-05
  0.3993063E-01  0.8415358E-05
  0.4004505E-01  0.8373892E-05
  0.4015946E-01  0.8330128E-05
  0.4027387E-01  0.8283982E-05
  0.4038829E-01  0.8235384E-05
  0.4050270E-01  0.8184291E-05
  0.4061712E-01  0.8130725E-05
  0.4073153E-01  0.8074781E-05
  0.4084595E-01  0.8016479E-05
  0.4096036E-01  0.7955760E-05
  0.4107477E-01  0.7892520E-05
  0.4118919E-01  0.7826623E-05
  0.4130360E-01  0.7757941E-05
  0.4141802E-01  0.7686367E-05
  0.4153243E-01  0.7611851E-05
  0.4164685E-01  0.7534423E-05
  0.4176126E-01  0.7454212E-05
  0.4187568E-01  0.7371377E-05
  0.4199009E-01  0.7285947E-05
  0.4210450E-01  0.7197964E-05
  0.4221892E-01  0.7107494E-05
  0.4233333E-01  0.7014633E-05
  0.4244775E-01  0.6919500E-05
  0.4256216E-01  0.6822233E-05
  0.4267658E-01  0.6722993E-05
  0.4279099E-01  0.6621951E-05
  0.4290541E-01  0.6519298E-05
  0.4301982E-01  0.6415231E-05
  0.4313423E-01  0.6309837E-05
  0.4324865E-01  0.6203016E-05
  0.4336306E-01  0.6094849E-05
  0.4347748E-01  0.5985582E-05
  0.4359189E-01  0.5875579E-05
  0.4370631E-01  0.5765273E-05
  0.4382072E-01  0.5655111E-05
  0.4393514E-01  0.5545514E-05
  0.4404955E-01  0.5436821E-05
  0.4416396E-01  0.5329235E-05
  0.4427838E-01  0.5222787E-05
  0.4439279E-01  0.5117377E-05
  0.4450721E-01  0.5013116E-05
  0.4462162E-01  0.4910182E-05
  0.4473604E-01  0.4808745E-05
  0.4485045E-01  0.4708966E-05
  0.4496486E-01  0.4610995E-05
  0.4507928E-01  0.4514962E-05
  0.4519369E-01  0.4420977E-05
  0.4530811E-01  0.4329123E-05
  0.4542252E-01  0.4239460E-05
  0.4553694E-01  0.4152012E-05
  0.4565135E-01  0.4066788E-05
  0.4576577E-01  0.3983879E-05
  0.4588018E-01  0.3903436E-05
  0.4599459E-01  0.3825497E-05
  0.4610901E-01  0.3750027E-05
  0.4622342E-01  0.3676939E-05
  0.4633784E-01  0.3606120E-05
  0.4645225E-01  0.3537446E-05
  0.4656667E-01  0.3470803E-05
  0.4668108E-01  0.3406113E-05
  0.4679550E-01  0.3343346E-05
  0.4690991E-01  0.3282545E-05
  0.4702432E-01  0.3223791E-05
  0.4713874E-01  0.3167067E-05
  0.4725315E-01  0.3112346E-05
  0.4736757E-01  0.3059567E-05
  0.4748198E-01  0.3008663E-05
  0.4759640E-01  0.2959555E-05
  0.4771081E-01  0.2912166E-05
  0.4782523E-01  0.2866420E-05
  0.4793964E-01  0.2822254E-05
  0.4805405E-01  0.2779617E-05
  0.4816847E-01  0.2738477E-05
  0.4828288E-01  0.2698829E-05
  0.4839730E-01  0.2660648E-05
  0.4851171E-01  0.2623890E-05
  0.4862613E-01  0.2588511E-05
  0.4874054E-01  0.2554466E-05
  0.4885495E-01  0.2521712E-05
  0.4896937E-01  0.2490207E-05
  0.4908378E-01  0.2459912E-05
  0.4919820E-01  0.2430787E-05
  0.4931261E-01  0.2402795E-05
  0.4942703E-01  0.2375903E-05
  0.4954144E-01  0.2350079E-05
  0.4965586E-01  0.2325291E-05
  0.4977027E-01  0.2301507E-05
  0.4988468E-01  0.2278694E-05
  0.4999910E-01  0.2256819E-05
  0.5011351E-01  0.2235854E-05
  0.5022793E-01  0.2215768E-05
  0.5034234E-01  0.2196536E-05
  0.5045676E-01  0.2178130E-05
  0.5057117E-01  0.2160526E-05
  0.5068559E-01  0.2143697E-05
  0.5080000E-01  0.2127618E-05
  0.5091441E-01  0.2112263E-05
  0.5102883E-01  0.2097606E-05
  0.5114324E-01  0.2083621E-05
  0.5125766E-01  0.2070288E-05
  0.5137207E-01  0.2057579E-05
  0.5148649E-01  0.2045475E-05
  0.5160090E-01  0.2033957E-05
  0.5171532E-01  0.2023004E-05
  0.5182973E-01  0.2012599E-05
  0.5194414E-01  0.2002724E-05
  0.5205856E-01  0.1993360E-05
  0.5217297E-01  0.1984489E-05
  0.5228739E-01  0.1976092E-05
  0.5240180E-01  0.1968149E-05
  0.5251622E-01  0.1960640E-05
  0.5263063E-01  0.1953552E-05
  0.5274505E-01  0.1946865E-05
  0.5285946E-01  0.1940563E-05
  0.5297387E-01  0.1934634E-05
  0.5308829E-01  0.1929062E-05
  0.5320270E-01  0.1923835E-05
  0.5331712E-01  0.1918939E-05
  0.5343153E-01  0.1914362E-05
  0.5354595E-01  0.1910088E-05
  0.5366036E-01  0.1906105E-05
  0.5377477E-01  0.1902398E-05
  0.5388919E-01  0.1898954E-05
  0.5400360E-01  0.1895762E-05
  0.5411802E-01  0.1892809E-05
  0.5423243E-01  0.1890084E-05
  0.5434685E-01  0.1887575E-05
  0.5446126E-01  0.1885270E-05
  0.5457568E-01  0.1883160E-05
  0.5469009E-01  0.1881230E-05
  0.5480450E-01  0.1879471E-05
  0.5491892E-01  0.1877872E-05
  0.5503333E-01  0.1876424E-05
  0.5514775E-01  0.1875120E-05
  0.5526216E-01  0.1873952E-05
  0.5537658E-01  0.1872911E-05
  0.5549099E-01  0.1871993E-05
  0.5560541E-01  0.1871191E-05
  0.5571982E-01  0.1870499E-05
  0.5583423E-01  0.1869904E-05
  0.5594865E-01  0.1869400E-05
  0.5606306E-01  0.1868977E-05
  0.5617748E-01  0.1868629E-05
  0.5629189E-01  0.1868350E-05
  0.5640631E-01  0.1868137E-05
  0.5652072E-01  0.1867988E-05
  0.5663514E-01  0.1867904E-05
  0.5674955E-01  0.1867883E-05
  0.5686396E-01  0.1867916E-05
  0.5697838E-01  0.1868005E-05
  0.5709279E-01  0.1868148E-05
  0.5720721E-01  0.1868342E-05
  0.5732162E-01  0.1868585E-05
  0.5743604E-01  0.1868876E-05
  0.5755045E-01  0.1869215E-05
  0.5766486E-01  0.1869604E-05
  0.5777928E-01  0.1870045E-05
  0.5789369E-01  0.1870543E-05
  0.5800811E-01  0.1871094E-05
  0.5812252E-01  0.1871699E-05
  0.5823694E-01  0.1872369E-05
  0.5835135E-01  0.1873109E-05
  0.5846577E-01  0.1873912E-05
  0.5858018E-01  0.1874792E-05
  0.5869459E-01  0.1875761E-05
  0.5880901E-01  0.1876835E-05
  0.5892342E-01  0.1878027E-05
  0.5903784E-01  0.1879348E-05
  0.5915225E-01  0.1880806E-05
  0.5926667E-01  0.1882404E-05
  0.5938108E-01  0.1884138E-05
  0.5949550E-01  0.1886015E-05
  0.5960991E-01  0.1888042E-05
  0.5972432E-01  0.1890225E-05
  0.5983874E-01  0.1892574E-05
  0.5995315E-01  0.1895094E-05
  0.6006757E-01  0.1897796E-05
  0.6018198E-01  0.1900685E-05
  0.6029640E-01  0.1903768E-05
  0.6041081E-01  0.1907052E-05
  0.6052523E-01  0.1910543E-05
  0.6063964E-01  0.1914250E-05
  0.6075405E-01  0.1918178E-05
  0.6086847E-01  0.1922334E-05
  0.6098288E-01  0.1926725E-05
  0.6109730E-01  0.1931359E-05
  0.6121171E-01  0.1936243E-05
  0.6132613E-01  0.1941382E-05
  0.6144054E-01  0.1946786E-05
  0.6155495E-01  0.1952461E-05
  0.6166937E-01  0.1958413E-05
  0.6178378E-01  0.1964649E-05
  0.6189820E-01  0.1971176E-05
  0.6201261E-01  0.1978001E-05
  0.6212703E-01  0.1985132E-05
  0.6224144E-01  0.1992576E-05
  0.6235586E-01  0.2000342E-05
  0.6247027E-01  0.2008436E-05
  0.6258468E-01  0.2016866E-05
  0.6269910E-01  0.2025637E-05
  0.6281351E-01  0.2034758E-05
  0.6292793E-01  0.2044237E-05
  0.6304234E-01  0.2054081E-05
  0.6315676E-01  0.2064295E-05
  0.6327117E-01  0.2074887E-05
  0.6338559E-01  0.2085866E-05
  0.6350000E-01  0.2097239E-05
  0.6361441E-01  0.2109013E-05
  0.6372883E-01  0.2121199E-05
  0.6384324E-01  0.2133803E-05
  0.6395766E-01  0.2146833E-05
  0.6407207E-01  0.2160300E-05
  0.6418649E-01  0.2174210E-05
  0.6430090E-01  0.2188572E-05
  0.6441532E-01  0.2203396E-05
  0.6452973E-01  0.2218691E-05
  0.6464414E-01  0.2234465E-05
  0.6475856E-01  0.2250730E-05
  0.6487297E-01  0.2267491E-05
  0.6498739E-01  0.2284761E-05
  0.6510180E-01  0.2302542E-05
  0.6521622E-01  0.2320843E-05
  0.6533063E-01  0.2339673E-05
  0.6544505E-01  0.2359046E-05
  0.6555946E-01  0.2378974E-05
  0.6567387E-01  0.2399461E-05
  0.6578829E-01  0.2420517E-05
  0.6590270E-01  0.2442155E-05
  0.6601712E-01  0.2464388E-05
  0.6613153E-01  0.2487228E-05
  0.6624595E-01  0.2510683E-05
  0.6636036E-01  0.2534761E-05
  0.6647477E-01  0.2559466E-05
  0.6658919E-01  0.2584808E-05
  0.6670360E-01  0.2610793E-05
  0.6681802E-01  0.2637431E-05
  0.6693243E-01  0.2664726E-05
  0.6704685E-01  0.2692688E-05
  0.6716126E-01  0.2721323E-05
  0.6727568E-01  0.2750640E-05
  0.6739009E-01  0.2780644E-05
  0.6750450E-01  0.2811339E-05
  0.6761892E-01  0.2842733E-05
  0.6773333E-01  0.2874832E-05
  0.6784775E-01  0.2907645E-05
  0.6796216E-01  0.2941181E-05
  0.6807658E-01  0.2975446E-05
  0.6819099E-01  0.3010447E-05
  0.6830541E-01  0.3046188E-05
  0.6841982E-01  0.3082672E-05
  0.6853423E-01  0.3119908E-05
  0.6864865E-01  0.3157903E-05
  0.6876306E-01  0.3196662E-05
  0.6887748E-01  0.3236188E-05
  0.6899189E-01  0.3276485E-05
  0.6910631E-01  0.3317562E-05
  0.6922072E-01  0.3359425E-05
  0.6933514E-01  0.3402082E-05
  0.6944955E-01  0.3445541E-05
  0.6956396E-01  0.3489807E-05
  0.6967838E-01  0.3534888E-05
  0.6979279E-01  0.3580786E-05
  0.6990721E-01  0.3627511E-05
  0.7002162E-01  0.3675066E-05
  0.7013604E-01  0.3723461E-05
  0.7025045E-01  0.3772700E-05
  0.7036486E-01  0.3822791E-05
  0.7047928E-01  0.3873738E-05
  0.7059369E-01  0.3925552E-05
  0.7070811E-01  0.3978238E-05
  0.7082252E-01  0.4031802E-05
  0.7093694E-01  0.4086251E-05
  0.7105135E-01  0.4141594E-05
  0.7116577E-01  0.4197839E-05
  0.7128018E-01  0.4254995E-05
  0.7139459E-01  0.4313070E-05
  0.7150901E-01  0.4372070E-05
  0.7162342E-01  0.4432004E-05
  0.7173784E-01  0.4492883E-05
  0.7185225E-01  0.4554714E-05
  0.7196667E-01  0.4617508E-05
  0.7208108E-01  0.4681266E-05
  0.7219550E-01  0.4745991E-05
  0.7230991E-01  0.4811691E-05
  0.7242432E-01  0.4878376E-05
  0.7253874E-01  0.4946056E-05
  0.7265315E-01  0.5014744E-05
  0.7276757E-01  0.5084452E-05
  0.7288198E-01  0.5155179E-05
  0.7299640E-01  0.5226938E-05
  0.7311081E-01  0.5299739E-05
  0.7322523E-01  0.5373590E-05
  0.7333964E-01  0.5448503E-05
  0.7345405E-01  0.5524473E-05
  0.7356847E-01  0.5601500E-05
  0.7368288E-01  0.5679586E-05
  0.7379730E-01  0.5758742E-05
  0.7391171E-01  0.5838976E-05
  0.7402613E-01  0.5920298E-05
  0.7414054E-01  0.6002721E-05
  0.7425495E-01  0.6086240E-05
  0.7436937E-01  0.6170859E-05
  0.7448378E-01  0.6256587E-05
  0.7459820E-01  0.6343427E-05
  0.7471261E-01  0.6431384E-05
  0.7482703E-01  0.6520451E-05
  0.7494144E-01  0.6610620E-05
  0.7505586E-01  0.6701891E-05
  0.7517027E-01  0.6794262E-05
  0.7528468E-01  0.6887734E-05
  0.7539910E-01  0.6982309E-05
  0.7551351E-01  0.7077984E-05
  0.7562793E-01  0.7174753E-05
  0.7574234E-01  0.7272606E-05
  0.7585676E-01  0.7371540E-05
  0.7597117E-01  0.7471547E-05
  0.7608559E-01  0.7572619E-05
  0.7620000E-01  0.7674744E-05
  0.7631441E-01  0.7777917E-05
  0.7642883E-01  0.7882127E-05
  0.7654324E-01  0.7987361E-05
  0.7665766E-01  0.8093600E-05
  0.7677207E-01  0.8200823E-05
  0.7688649E-01  0.8309010E-05
  0.7700090E-01  0.8418141E-05
  0.7711532E-01  0.8528204E-05
  0.7722973E-01  0.8639177E-05
  0.7734414E-01  0.8751031E-05
  0.7745856E-01  0.8863746E-05
  0.7757297E-01  0.8977315E-05
  0.7768739E-01  0.9091735E-05
  0.7780180E-01  0.9206985E-05
  0.7791622E-01  0.9323037E-05
  0.7803063E-01  0.9439855E-05
  0.7814505E-01  0.9557402E-05
  0.7825946E-01  0.9675634E-05
  0.7837387E-01  0.9794526E-05
  0.7848829E-01  0.9914073E-05
  0.7860270E-01  0.1003424E-04
  0.7871712E-01  0.1015498E-04
  0.7883153E-01  0.1027628E-04
  0.7894595E-01  0.1039815E-04
  0.7906036E-01  0.1052056E-04
  0.7917477E-01  0.1064350E-04
  0.7928919E-01  0.1076693E-04
  0.7940360E-01  0.1089083E-04
  0.7951802E-01  0.1101516E-04
  0.7963243E-01  0.1113988E-04
  0.7974685E-01  0.1126495E-04
  0.7986126E-01  0.1139041E-04
  0.7997568E-01  0.1151620E-04
  0.8009009E-01  0.1164231E-04
  0.8020450E-01  0.1176872E-04
  0.8031892E-01  0.1189545E-04
  0.8043333E-01  0.1202247E-04
  0.8054775E-01  0.1214978E-04
  0.8066216E-01  0.1227737E-04
  0.8077658E-01  0.1240521E-04
  0.8089099E-01  0.1253330E-04
  0.8100541E-01  0.1266162E-04
  0.8111982E-01  0.1279017E-04
  0.8123423E-01  0.1291896E-04
  0.8134865E-01  0.1304798E-04
  0.8146306E-01  0.1317724E-04
  0.8157748E-01  0.1330674E-04
  0.8169189E-01  0.1343649E-04
  0.8180631E-01  0.1356651E-04
  0.8192072E-01  0.1369681E-04
  0.8203514E-01  0.1382739E-04
  0.8214955E-01  0.1395826E-04
  0.8226396E-01  0.1408945E-04
  0.8237838E-01  0.1422099E-04
  0.8249279E-01  0.1435287E-04
  0.8260721E-01  0.1448514E-04
  0.8272162E-01  0.1461781E-04
  0.8283604E-01  0.1475093E-04
  0.8295045E-01  0.1488450E-04
  0.8306486E-01  0.1501859E-04
  0.8317928E-01  0.1515322E-04
  0.8329369E-01  0.1528843E-04
  0.8340811E-01  0.1542426E-04
  0.8352252E-01  0.1556075E-04
  0.8363694E-01  0.1569794E-04
  0.8375135E-01  0.1583588E-04
  0.8386577E-01  0.1597464E-04
  0.8398018E-01  0.1611425E-04
  0.8409459E-01  0.1625478E-04
  0.8420901E-01  0.1639630E-04
  0.8432342E-01  0.1653888E-04
  0.8443784E-01  0.1668258E-04
  0.8455225E-01  0.1682747E-04
  0.8466667E-01  0.1697361E-04
  0.8478108E-01  0.1712108E-04
  0.8489550E-01  0.1726993E-04
  0.8500991E-01  0.1742026E-04
  0.8512432E-01  0.1757216E-04
  0.8523874E-01  0.1772572E-04
  0.8535315E-01  0.1788103E-04
  0.8546757E-01  0.1803822E-04
  0.8558198E-01  0.1819738E-04
  0.8569640E-01  0.1835866E-04
  0.8581081E-01  0.1852213E-04
  0.8592523E-01  0.1868790E-04
  0.8603964E-01  0.1885605E-04
  0.8615405E-01  0.1902673E-04
  0.8626847E-01  0.1920005E-04
  0.8638288E-01  0.1937617E-04
  0.8649730E-01  0.1955520E-04
  0.8661171E-01  0.1973735E-04
  0.8672613E-01  0.1992277E-04
  0.8684054E-01  0.2011165E-04
  0.8695495E-01  0.2030417E-04
  0.8706937E-01  0.2050048E-04
  0.8718378E-01  0.2070072E-04
  0.8729820E-01  0.2090507E-04
  0.8741261E-01  0.2111371E-04
  0.8752703E-01  0.2132683E-04
  0.8764144E-01  0.2154470E-04
  0.8775586E-01  0.2176750E-04
  0.8787027E-01  0.2199554E-04
  0.8798468E-01  0.2222911E-04
  0.8809910E-01  0.2246846E-04
  0.8821351E-01  0.2271386E-04
  0.8832793E-01  0.2296554E-04
  0.8844234E-01  0.2322375E-04
  0.8855676E-01  0.2348876E-04
  0.8867117E-01  0.2376085E-04
  0.8878559E-01  0.2404039E-04
  0.8890000E-01  0.2432774E-04
  0.8901441E-01  0.2462324E-04
  0.8912883E-01  0.2492740E-04
  0.8924324E-01  0.2524062E-04
  0.8935766E-01  0.2556334E-04
  0.8947207E-01  0.2589591E-04
  0.8958649E-01  0.2623874E-04
  0.8970090E-01  0.2659221E-04
  0.8981532E-01  0.2695676E-04
  0.8992973E-01  0.2733289E-04
  0.9004414E-01  0.2772120E-04
  0.9015856E-01  0.2812224E-04
  0.9027297E-01  0.2853669E-04
  0.9038739E-01  0.2896526E-04
  0.9050180E-01  0.2940858E-04
  0.9061622E-01  0.2986728E-04
  0.9073063E-01  0.3034195E-04
  0.9084505E-01  0.3083323E-04
  0.9095946E-01  0.3134177E-04
  0.9107387E-01  0.3186832E-04
  0.9118829E-01  0.3241380E-04
  0.9130270E-01  0.3297909E-04
  0.9141712E-01  0.3356521E-04
  0.9153153E-01  0.3417325E-04
  0.9164595E-01  0.3480421E-04
  0.9176036E-01  0.3545906E-04
  0.9187477E-01  0.3613876E-04
  0.9198919E-01  0.3684428E-04
  0.9210360E-01  0.3757671E-04
  0.9221802E-01  0.3833716E-04
  0.9233243E-01  0.3912707E-04
  0.9244685E-01  0.3994780E-04
  0.9256126E-01  0.4080094E-04
  0.9267568E-01  0.4168814E-04
  0.9279009E-01  0.4261094E-04
  0.9290450E-01  0.4357086E-04
  0.9301892E-01  0.4456938E-04
  0.9313333E-01  0.4560812E-04
  0.9324775E-01  0.4668872E-04
  0.9336216E-01  0.4781301E-04
  0.9347658E-01  0.4898321E-04
  0.9359099E-01  0.5020142E-04
  0.9370541E-01  0.5147014E-04
  0.9381982E-01  0.5279177E-04
  0.9393423E-01  0.5416867E-04
  0.9404865E-01  0.5560317E-04
  0.9416306E-01  0.5709767E-04
  0.9427748E-01  0.5865469E-04
  0.9439189E-01  0.6027691E-04
  0.9450631E-01  0.6196729E-04
  0.9462072E-01  0.6372918E-04
  0.9473514E-01  0.6556591E-04
  0.9484955E-01  0.6748101E-04
  0.9496396E-01  0.6947799E-04
  0.9507838E-01  0.7156047E-04
  0.9519279E-01  0.7373218E-04
  0.9530721E-01  0.7599698E-04
  0.9542162E-01  0.7835898E-04
  0.9553604E-01  0.8082243E-04
  0.9565045E-01  0.8339194E-04
  0.9576486E-01  0.8607227E-04
  0.9587928E-01  0.8886823E-04
  0.9599369E-01  0.9178480E-04
  0.9610811E-01  0.9482724E-04
  0.9622252E-01  0.9800102E-04
  0.9633694E-01  0.1013119E-03
  0.9645135E-01  0.1047657E-03
  0.9656577E-01  0.1083686E-03
  0.9668018E-01  0.1121269E-03
  0.9679459E-01  0.1160471E-03
  0.9690901E-01  0.1201354E-03
  0.9702342E-01  0.1243982E-03
  0.9713784E-01  0.1288431E-03
  0.9725225E-01  0.1334775E-03
  0.9736667E-01  0.1383096E-03
  0.9748108E-01  0.1433478E-03
  0.9759550E-01  0.1486005E-03
  0.9770991E-01  0.1540759E-03
  0.9782432E-01  0.1597818E-03
  0.9793874E-01  0.1657257E-03
  0.9805315E-01  0.1719154E-03
  0.9816757E-01  0.1783606E-03
  0.9828198E-01  0.1850716E-03
  0.9839640E-01  0.1920595E-03
  0.9851081E-01  0.1993351E-03
  0.9862523E-01  0.2069089E-03
  0.9873964E-01  0.2147901E-03
  0.9885405E-01  0.2229865E-03
  0.9896847E-01  0.2315053E-03
  0.9908288E-01  0.2403560E-03
  0.9919730E-01  0.2495505E-03
  0.9931171E-01  0.2591013E-03
  0.9942613E-01  0.2690215E-03
  0.9954054E-01  0.2793230E-03
  0.9965495E-01  0.2900159E-03
  0.9976937E-01  0.3011068E-03
  0.9988378E-01  0.3126003E-03
  0.9999820E-01  0.3245032E-03
  0.1001126E+00  0.3368252E-03
  0.1002270E+00  0.3495779E-03
  0.1003414E+00  0.3627728E-03
  0.1004559E+00  0.3764199E-03
  0.1005703E+00  0.3905265E-03
  0.1006847E+00  0.4050951E-03
  0.1007991E+00  0.4201255E-03
  0.1009135E+00  0.4356198E-03
  0.1010279E+00  0.4515813E-03
  0.1011423E+00  0.4680129E-03
  0.1012568E+00  0.4849170E-03
  0.1013712E+00  0.5022938E-03
  0.1014856E+00  0.5201409E-03
  0.1016000E+00  0.5384519E-03
  0.1017144E+00  0.5572215E-03
  0.1018288E+00  0.5764467E-03
  0.1019432E+00  0.5961186E-03
  0.1020577E+00  0.6162234E-03
  0.1021721E+00  0.6367448E-03
  0.1022865E+00  0.6576649E-03
  0.1024009E+00  0.6789667E-03
  0.1025153E+00  0.7006358E-03
  0.1026297E+00  0.7226641E-03
  0.1027441E+00  0.7450391E-03
  0.1028586E+00  0.7677371E-03
  0.1029730E+00  0.7907276E-03
  0.1030874E+00  0.8139779E-03
  0.1032018E+00  0.8374576E-03
  0.1033162E+00  0.8611424E-03
  0.1034306E+00  0.8850185E-03
  0.1035450E+00  0.9090707E-03
  0.1036595E+00  0.9332749E-03
  0.1037739E+00  0.9576020E-03
  0.1038883E+00  0.9820204E-03
  0.1040027E+00  0.1006500E-02
  0.1041171E+00  0.1031015E-02
  0.1042315E+00  0.1055548E-02
  0.1043459E+00  0.1080082E-02
  0.1044604E+00  0.1104595E-02
  0.1045748E+00  0.1129067E-02
  0.1046892E+00  0.1153480E-02
  0.1048036E+00  0.1177816E-02
  0.1049180E+00  0.1202060E-02
  0.1050324E+00  0.1226196E-02
  0.1051468E+00  0.1250210E-02
  0.1052613E+00  0.1274085E-02
  0.1053757E+00  0.1297813E-02
  0.1054901E+00  0.1321382E-02
  0.1056045E+00  0.1344792E-02
  0.1057189E+00  0.1368036E-02
  0.1058333E+00  0.1391106E-02
  0.1059477E+00  0.1413991E-02
  0.1060622E+00  0.1436683E-02
  0.1061766E+00  0.1459181E-02
  0.1062910E+00  0.1481483E-02
  0.1064054E+00  0.1503593E-02
  0.1065198E+00  0.1525510E-02
  0.1066342E+00  0.1547231E-02
  0.1067486E+00  0.1568753E-02
  0.1068631E+00  0.1590077E-02
  0.1069775E+00  0.1611203E-02
  0.1070919E+00  0.1632135E-02
  0.1072063E+00  0.1652881E-02
  0.1073207E+00  0.1673441E-02
  0.1074351E+00  0.1693817E-02
  0.1075495E+00  0.1714011E-02
  0.1076640E+00  0.1734029E-02
  0.1077784E+00  0.1753875E-02
  0.1078928E+00  0.1773556E-02
  0.1080072E+00  0.1793078E-02
  0.1081216E+00  0.1812447E-02
  0.1082360E+00  0.1831666E-02
  0.1083505E+00  0.1850740E-02
  0.1084649E+00  0.1869679E-02
  0.1085793E+00  0.1888493E-02
  0.1086937E+00  0.1907189E-02
  0.1088081E+00  0.1925777E-02
  0.1089225E+00  0.1944259E-02
  0.1090369E+00  0.1962640E-02
  0.1091514E+00  0.1980928E-02
  0.1092658E+00  0.1999131E-02
  0.1093802E+00  0.2017259E-02
  0.1094946E+00  0.2035315E-02
  0.1096090E+00  0.2053300E-02
  0.1097234E+00  0.2071219E-02
  0.1098378E+00  0.2089072E-02
  0.1099523E+00  0.2106863E-02