VARIABLES="N","h=(1/N)^(1/3)","h^2=(1/N)^(2/3)", "C_L", "C_D", "C_Dp", "C_Dv", "C_My", "max_MUT"
ZONE t="FUN3D, Prism/hex, 2nd-Turb L1-L4", i=5, f=point, strandid=1
71368353  0.2410819942E-02  0.5812052791E-05  0.8628756366E-01  0.3474196331E-01  0.2218516572E-01  0.1255679759E-01 -0.2589271999E-01  0.1773818774E+04
 8995153  0.4808361913E-02  0.2312034428E-04  0.8641842E-01     0.3497065079E-01  0.2241051369E-01  0.1256013711E-01 -0.2607016672E-01  0.1682862571E+04
 1143081  0.9564031503E-02  0.9147069859E-04  0.8655168789E-01  0.3562181088E-01  0.2303915856E-01  0.1258265232E-01 -0.2643838567E-01  0.1402779283E+04
  147637  0.1892060109E-01  0.3579891456E-03  0.8771773866E-01  0.3761848610E-01  0.2493097852E-01  0.1268750758E-01 -0.2764464212E-01  0.6868591499E+03
