# CFD data extracted (using Tecplot) by interpolating from original grid onto fixed set of points
# SST model
VARIABLES = "X","Y","uv/Uref^2"
ZONE T="CFL3D, x=1.01"
 1.009999990E+00 -2.000000000E+01 3.087992102E-13
 1.009999990E+00 -1.935783958E+01 2.936372391E-13
 1.009999990E+00 -1.873642540E+01 2.981283297E-13
 1.009999990E+00 -1.813489723E+01 3.302586882E-13
 1.009999990E+00 -1.755247307E+01 3.505395572E-13
 1.009999990E+00 -1.698842812E+01 3.724381914E-13
 1.009999990E+00 -1.644208908E+01 3.957770255E-13
 1.009999990E+00 -1.591282177E+01 4.205787194E-13
 1.009999990E+00 -1.540002155E+01 4.467785462E-13
 1.009999990E+00 -1.490311527E+01 4.745125733E-13
 1.009999990E+00 -1.442155170E+01 5.038906575E-13
 1.009999990E+00 -1.395480156E+01 5.350163671E-13
 1.009999990E+00 -1.350235271E+01 5.679890694E-13
 1.009999990E+00 -1.306371021E+01 6.029099203E-13
 1.009999990E+00 -1.263839531E+01 6.398961222E-13
 1.009999990E+00 -1.222593880E+01 6.790455242E-13
 1.009999990E+00 -1.182589436E+01 7.204407427E-13
 1.009999990E+00 -1.143781471E+01 7.642684771E-13
 1.009999990E+00 -1.106141567E+01 8.107082171E-13
 1.009999990E+00 -1.069646168E+01 8.598371581E-13
 1.009999990E+00 -1.034272861E+01 9.116925964E-13
 1.009999990E+00 -9.999948502E+00 9.664501187E-13
 1.009999990E+00 -9.667881966E+00 1.024202207E-12
 1.009999990E+00 -9.346258163E+00 1.085075172E-12
 1.009999990E+00 -9.034824371E+00 1.149193696E-12
 1.009999990E+00 -8.733310699E+00 1.216671295E-12
 1.009999990E+00 -8.441459656E+00 1.287614546E-12
 1.009999990E+00 -8.159008026E+00 1.362128401E-12
 1.009999990E+00 -7.885692596E+00 1.440311520E-12
 1.009999990E+00 -7.621260166E+00 1.522252376E-12
 1.009999990E+00 -7.365450859E+00 1.608024477E-12
 1.009999990E+00 -7.118018627E+00 1.697665012E-12
 1.009999990E+00 -6.878712177E+00 1.791548247E-12
 1.009999990E+00 -6.647291660E+00 1.893837517E-12
 1.009999990E+00 -6.423519135E+00 0.000000000E+00
 1.009999990E+00 -6.207160950E+00 2.100803038E-12
 1.009999990E+00 -5.997991562E+00 2.208213430E-12
 1.009999990E+00 -5.795789719E+00 2.321120076E-12
 1.009999990E+00 -5.600339890E+00 2.438738664E-12
 1.009999990E+00 -5.411433220E+00 2.561067894E-12
 1.009999990E+00 -5.228827953E+00 2.686567115E-12
 1.009999990E+00 -5.052223682E+00 2.813990794E-12
 1.009999990E+00 -4.881423950E+00 2.946189299E-12
 1.009999990E+00 -4.716265202E+00 3.081556494E-12
 1.009999990E+00 -4.556583405E+00 3.219651542E-12
 1.009999990E+00 -4.402204514E+00 3.360095188E-12
 1.009999990E+00 -4.252981186E+00 3.502474352E-12
 1.009999990E+00 -4.108750820E+00 3.646397420E-12
 1.009999990E+00 -3.969357491E+00 3.791320122E-12
 1.009999990E+00 -3.834659100E+00 3.936671735E-12
 1.009999990E+00 -3.704500675E+00 4.081943984E-12
 1.009999990E+00 -3.578741312E+00 4.226419128E-12
 1.009999990E+00 -3.457240820E+00 4.369512564E-12
 1.009999990E+00 -3.339855671E+00 4.510527368E-12
 1.009999990E+00 -3.226454258E+00 4.648866795E-12
 1.009999990E+00 -3.116902113E+00 4.783945375E-12
 1.009999990E+00 -3.011067867E+00 4.915087001E-12
 1.009999990E+00 -2.908826351E+00 5.041874036E-12
 1.009999990E+00 -2.810053110E+00 5.163976451E-12
 1.009999990E+00 -2.714627981E+00 5.281202125E-12
 1.009999990E+00 -2.622434855E+00 5.393485571E-12
 1.009999990E+00 -2.533361197E+00 5.501149449E-12
 1.009999990E+00 -2.447297573E+00 5.604902393E-12
 1.009999990E+00 -2.364140272E+00 5.705907101E-12
 1.009999990E+00 -2.283789158E+00 5.805604261E-12
 1.009999990E+00 -2.206146479E+00 5.906013092E-12
 1.009999990E+00 -2.131122589E+00 6.011006796E-12
 1.009999990E+00 -2.058630943E+00 6.117540502E-12
 1.009999990E+00 -1.988584638E+00 6.230556002E-12
 1.009999990E+00 -1.920913339E+00 6.378298063E-12
 1.009999990E+00 -1.855541468E+00 6.555815352E-12
 1.009999990E+00 -1.792391539E+00 6.752095411E-12
 1.009999990E+00 -1.731388450E+00 6.986241446E-12
 1.009999990E+00 -1.672460914E+00 7.272866771E-12
 1.009999990E+00 -1.615538955E+00 7.627878364E-12
 1.009999990E+00 -1.560554504E+00 8.063276609E-12
 1.009999990E+00 -1.507442951E+00 8.596014525E-12
 1.009999990E+00 -1.456141472E+00 9.245199224E-12
 1.009999990E+00 -1.406588554E+00 1.002847892E-11
 1.009999990E+00 -1.358725309E+00 1.096984569E-11
 1.009999990E+00 -1.312495232E+00 1.209385456E-11
 1.009999990E+00 -1.267842770E+00 1.342741456E-11
 1.009999990E+00 -1.224714160E+00 1.499960919E-11
 1.009999990E+00 -1.183058500E+00 1.684108929E-11
 1.009999990E+00 -1.142825365E+00 1.898474260E-11
 1.009999990E+00 -1.103965998E+00 2.146566258E-11
 1.009999990E+00 -1.066433787E+00 2.432038425E-11
 1.009999990E+00 -1.030183315E+00 2.758728836E-11
 1.009999990E+00 -9.951701760E-01 3.130701254E-11
 1.009999990E+00 -9.613518715E-01 3.552022912E-11
 1.009999990E+00 -9.286869764E-01 4.027308001E-11
 1.009999990E+00 -8.971354365E-01 4.561117456E-11
 1.009999990E+00 -8.666585088E-01 5.158262359E-11
 1.009999990E+00 -8.372187614E-01 5.823919125E-11
 1.009999990E+00 -8.087800145E-01 6.563644767E-11
 1.009999990E+00 -7.813075185E-01 7.382815193E-11
 1.009999990E+00 -7.547675371E-01 8.283741748E-11
 1.009999990E+00 -7.291278839E-01 9.262597633E-11
 1.009999990E+00 -7.043573856E-01 1.031057462E-10
 1.009999990E+00 -6.804260612E-01 1.141937517E-10
 1.009999990E+00 -6.573053598E-01 1.258055049E-10
 1.009999990E+00 -6.349676251E-01 1.379550502E-10
 1.009999990E+00 -6.133861542E-01 1.503509955E-10
 1.009999990E+00 -5.925353169E-01 1.631085683E-10
 1.009999990E+00 -5.723937154E-01 1.766394531E-10
 1.009999990E+00 -5.529382825E-01 1.903977948E-10
 1.009999990E+00 -5.341456532E-01 2.040882463E-10
 1.009999990E+00 -5.159932971E-01 2.177412278E-10
 1.009999990E+00 -4.984593987E-01 2.313835373E-10
 1.009999990E+00 -4.815229774E-01 2.449366265E-10
 1.009999990E+00 -4.651636481E-01 2.582549452E-10
 1.009999990E+00 -4.493618011E-01 2.711945946E-10
 1.009999990E+00 -4.340984523E-01 2.836361701E-10
 1.009999990E+00 -4.193552732E-01 2.954761991E-10
 1.009999990E+00 -4.051145911E-01 3.066253640E-10
 1.009999990E+00 -3.913592696E-01 3.170057550E-10
 1.009999990E+00 -3.780727983E-01 3.265517301E-10
 1.009999990E+00 -3.652392030E-01 3.352165490E-10
 1.009999990E+00 -3.528430760E-01 3.429690143E-10
 1.009999990E+00 -3.408695161E-01 3.497902523E-10
 1.009999990E+00 -3.293041289E-01 3.556854811E-10
 1.009999990E+00 -3.181329966E-01 3.606711596E-10
 1.009999990E+00 -3.073426485E-01 3.647766811E-10
 1.009999990E+00 -2.969201505E-01 3.680434568E-10
 1.009999990E+00 -2.868529260E-01 3.705211693E-10
 1.009999990E+00 -2.771288455E-01 3.722718522E-10
 1.009999990E+00 -2.677361369E-01 3.733580667E-10
 1.009999990E+00 -2.586635351E-01 3.738475085E-10
 1.009999990E+00 -2.499000579E-01 3.738078735E-10
 1.009999990E+00 -2.414351106E-01 3.733090503E-10
 1.009999990E+00 -2.332584411E-01 3.724210940E-10
 1.009999990E+00 -2.253601849E-01 3.712053998E-10
 1.009999990E+00 -2.177307606E-01 3.697267770E-10
 1.009999990E+00 -2.103609294E-01 3.680437344E-10
 1.009999990E+00 -2.032417506E-01 3.662096182E-10
 1.009999990E+00 -1.963646263E-01 3.642769142E-10
 1.009999990E+00 -1.897211969E-01 3.622895872E-10
 1.009999990E+00 -1.833034307E-01 3.602872722E-10
 1.009999990E+00 -1.771035492E-01 3.583119912E-10
 1.009999990E+00 -1.711140722E-01 3.563996875E-10
 1.009999990E+00 -1.653277576E-01 3.545799765E-10
 1.009999990E+00 -1.597376317E-01 3.528877746E-10
 1.009999990E+00 -1.543369889E-01 3.513461466E-10
 1.009999990E+00 -1.491193026E-01 3.499755485E-10
 1.009999990E+00 -1.440783441E-01 3.488259126E-10
 1.009999990E+00 -1.392080635E-01 3.478733412E-10
 1.009999990E+00 -1.345026344E-01 3.471453680E-10
 1.009999990E+00 -1.299564689E-01 3.466037735E-10
 1.009999990E+00 -1.255641431E-01 3.449945329E-10
 1.009999990E+00 -1.213204339E-01 3.426882944E-10
 1.009999990E+00 -1.172202975E-01 3.404945215E-10
 1.009999990E+00 -1.132588461E-01 0.000000000E+00
 1.009999990E+00 -1.094313934E-01 3.333207599E-10
 1.009999990E+00 -1.057334840E-01 3.296532769E-10
 1.009999990E+00 -1.021610349E-01 3.256457326E-10
 1.009999990E+00 -9.870979190E-02 3.213003752E-10
 1.009999990E+00 -9.537564218E-02 3.167320295E-10
 1.009999990E+00 -9.215459973E-02 3.122056780E-10
 1.009999990E+00 -8.904282004E-02 3.076899013E-10
 1.009999990E+00 -8.603659272E-02 3.031365436E-10
 1.009999990E+00 -8.313232660E-02 2.986124403E-10
 1.009999990E+00 -8.032655716E-02 2.941272781E-10
 1.009999990E+00 -7.761594653E-02 2.896544671E-10
 1.009999990E+00 -7.499725372E-02 2.851791303E-10
 1.009999990E+00 -7.246736437E-02 2.806606614E-10
 1.009999990E+00 -7.002326101E-02 2.760125184E-10
 1.009999990E+00 -6.766202301E-02 2.710034419E-10
 1.009999990E+00 -6.538084894E-02 2.651502629E-10
 1.009999990E+00 -6.317700446E-02 2.578411928E-10
 1.009999990E+00 -6.104788184E-02 2.488022288E-10
 1.009999990E+00 -5.899093673E-02 2.384887288E-10
 1.009999990E+00 -5.700372905E-02 2.276455274E-10
 1.009999990E+00 -5.508388579E-02 2.167744872E-10
 1.009999990E+00 -5.322912708E-02 2.061425891E-10
 1.009999990E+00 -5.143724382E-02 1.958731927E-10
 1.009999990E+00 -4.970610887E-02 1.860323701E-10
 1.009999990E+00 -4.803365469E-02 1.766483626E-10
 1.009999990E+00 -4.641790316E-02 1.677329386E-10
 1.009999990E+00 -4.485693574E-02 1.592881521E-10
 1.009999990E+00 -4.334890097E-02 1.513043996E-10
 1.009999990E+00 -4.189200699E-02 1.437738123E-10
 1.009999990E+00 -4.048452526E-02 1.366767255E-10
 1.009999990E+00 -3.912478313E-02 1.300010238E-10
 1.009999990E+00 -3.781116754E-02 1.237224906E-10
 1.009999990E+00 -3.654212132E-02 1.178281916E-10
 1.009999990E+00 -3.531615436E-02 1.122926127E-10
 1.009999990E+00 -3.413181379E-02 1.071024588E-10
 1.009999990E+00 -3.298769146E-02 1.022336937E-10
 1.009999990E+00 -3.188243136E-02 9.768316017E-11
 1.009999990E+00 -3.081471846E-02 9.353373631E-11
 1.009999990E+00 -2.978328243E-02 9.082263414E-11
 1.009999990E+00 -2.878691442E-02 9.878069890E-11
 1.009999990E+00 -2.782441489E-02 1.921294929E-10
 1.009999990E+00 -2.689462155E-02 9.051230876E-10
 1.009999990E+00 -2.599640377E-02 5.723449714E-09
 1.009999990E+00 -2.512866817E-02 3.393998327E-08
 1.009999990E+00 -2.429035865E-02 1.748867504E-07
 1.009999990E+00 -2.348043397E-02 7.191488862E-07
 1.009999990E+00 -2.269789018E-02 2.503876885E-06
 1.009999990E+00 -2.194175869E-02 8.599607099E-06
 1.009999990E+00 -2.121111006E-02 2.869610034E-05
 1.009999990E+00 -2.050504647E-02 7.815915160E-05
 1.009999990E+00 -1.982271671E-02 1.631268678E-04
 1.009999990E+00 -1.916330121E-02 2.711871348E-04
 1.009999990E+00 -1.852601953E-02 3.837801632E-04
 1.009999990E+00 -1.791011542E-02 4.918646300E-04
 1.009999990E+00 -1.731486619E-02 5.946073215E-04
 1.009999990E+00 -1.673957519E-02 6.936481805E-04
 1.009999990E+00 -1.618356816E-02 7.910537533E-04
 1.009999990E+00 -1.564619876E-02 8.901096880E-04
 1.009999990E+00 -1.512684394E-02 9.955733549E-04
 1.009999990E+00 -1.462490298E-02 1.098169014E-03
 1.009999990E+00 -1.413979195E-02 1.167206676E-03
 1.009999990E+00 -1.367094647E-02 1.227453351E-03
 1.009999990E+00 -1.321781985E-02 1.286005136E-03
 1.009999990E+00 -1.277988404E-02 1.341501484E-03
 1.009999990E+00 -1.235662960E-02 1.392942504E-03
 1.009999990E+00 -1.194756292E-02 1.439888612E-03
 1.009999990E+00 -1.155220717E-02 1.482363557E-03
 1.009999990E+00 -1.117010135E-02 1.520692487E-03
 1.009999990E+00 -1.080079935E-02 1.555501833E-03
 1.009999990E+00 -1.044387184E-02 1.587350504E-03
 1.009999990E+00 -1.009890065E-02 1.616408117E-03
 1.009999990E+00 -9.765485302E-03 1.638659625E-03
 1.009999990E+00 -9.443235584E-03 1.649702666E-03
 1.009999990E+00 -9.131776169E-03 1.662409399E-03
 1.009999990E+00 -8.830745704E-03 1.674245810E-03
 1.009999990E+00 -8.539792150E-03 1.684698276E-03
 1.009999990E+00 -8.258575574E-03 1.693757134E-03
 1.009999990E+00 -7.986768149E-03 1.701459987E-03
 1.009999990E+00 -7.724053692E-03 1.707877265E-03
 1.009999990E+00 -7.470124401E-03 1.713093719E-03
 1.009999990E+00 -7.224685047E-03 1.717198524E-03
 1.009999990E+00 -6.987449713E-03 1.720262691E-03
 1.009999990E+00 -6.758141331E-03 1.722360146E-03
 1.009999990E+00 -6.536493078E-03 1.723559690E-03
 1.009999990E+00 -6.322246511E-03 1.723927911E-03
 1.009999990E+00 -6.115152966E-03 1.723528258E-03
 1.009999990E+00 -5.914971232E-03 1.722423360E-03
 1.009999990E+00 -5.721468013E-03 1.720672240E-03
 1.009999990E+00 -5.534418393E-03 1.718339976E-03
 1.009999990E+00 -5.353605375E-03 1.715485356E-03
 1.009999990E+00 -5.178818014E-03 1.712160069E-03
 1.009999990E+00 -5.009854678E-03 1.708422322E-03
 1.009999990E+00 -4.846517928E-03 1.704326249E-03
 1.009999990E+00 -4.688618705E-03 1.699931687E-03
 1.009999990E+00 -4.535974469E-03 1.695295679E-03
 1.009999990E+00 -4.388407338E-03 1.690476318E-03
 1.009999990E+00 -4.245747346E-03 1.685536234E-03
 1.009999990E+00 -4.107828252E-03 1.680526650E-03
 1.009999990E+00 -3.974491265E-03 1.675501466E-03
 1.009999990E+00 -3.845581785E-03 1.670514815E-03
 1.009999990E+00 -3.720950801E-03 1.665624208E-03
 1.009999990E+00 -3.600454656E-03 1.660881215E-03
 1.009999990E+00 -3.483953886E-03 1.656329841E-03
 1.009999990E+00 -3.371314146E-03 1.652018633E-03
 1.009999990E+00 -3.262405749E-03 1.647996483E-03
 1.009999990E+00 -3.157103201E-03 1.644311589E-03
 1.009999990E+00 -3.055284964E-03 1.641004928E-03
 1.009999990E+00 -2.956833923E-03 1.638129354E-03
 1.009999990E+00 -2.861637156E-03 1.635735505E-03
 1.009999990E+00 -2.769585000E-03 1.633872045E-03
 1.009999990E+00 -2.680571983E-03 1.632586704E-03
 1.009999990E+00 -2.594495658E-03 1.631926629E-03
 1.009999990E+00 -2.511257771E-03 1.631947234E-03
 1.009999990E+00 -2.430762630E-03 1.632680185E-03
 1.009999990E+00 -2.352918033E-03 1.634162501E-03
 1.009999990E+00 -2.277635271E-03 1.636423054E-03
 1.009999990E+00 -2.204828197E-03 1.639483729E-03
 1.009999990E+00 -2.134413458E-03 1.643355004E-03
 1.009999990E+00 -2.066311194E-03 1.648038393E-03
 1.009999990E+00 -2.000443172E-03 1.653519808E-03
 1.009999990E+00 -1.936735003E-03 1.659767586E-03
 1.009999990E+00 -1.875113929E-03 1.666742261E-03
 1.009999990E+00 -1.815509866E-03 1.674373285E-03
 1.009999990E+00 -1.757855178E-03 1.682581729E-03
 1.009999990E+00 -1.702084555E-03 1.691273414E-03
 1.009999990E+00 -1.648134785E-03 1.700334949E-03
 1.009999990E+00 -1.595944748E-03 1.709639095E-03
 1.009999990E+00 -1.545455540E-03 1.719050459E-03
 1.009999990E+00 -1.496609999E-03 1.728419913E-03
 1.009999990E+00 -1.449353062E-03 1.737594488E-03
 1.009999990E+00 -1.403631642E-03 1.746421098E-03
 1.009999990E+00 -1.359393937E-03 1.754739671E-03
 1.009999990E+00 -1.316590584E-03 1.762397471E-03
 1.009999990E+00 -1.275173272E-03 1.769248862E-03
 1.009999990E+00 -1.235095784E-03 1.775161130E-03
 1.009999990E+00 -1.196312951E-03 1.780006220E-03
 1.009999990E+00 -1.158781582E-03 1.783672487E-03
 1.009999990E+00 -1.122459769E-03 1.786062261E-03
 1.009999990E+00 -1.087306882E-03 1.787095331E-03
 1.009999990E+00 -1.053283806E-03 1.786707551E-03
 1.009999990E+00 -1.020352705E-03 1.784852706E-03
 1.009999990E+00 -9.884770261E-04 1.781501225E-03
 1.009999990E+00 -9.576214361E-04 1.776639954E-03
 1.009999990E+00 -9.277517092E-04 1.770269941E-03
 1.009999990E+00 -8.988348418E-04 1.762407715E-03
 1.009999990E+00 -8.708388777E-04 1.753081684E-03
 1.009999990E+00 -8.437330252E-04 1.742332126E-03
 1.009999990E+00 -8.174874238E-04 1.730209100E-03
 1.009999990E+00 -7.920732605E-04 1.716771745E-03
 1.009999990E+00 -7.674626540E-04 1.702084905E-03
 1.009999990E+00 -7.436286542E-04 1.686216216E-03
 1.009999990E+00 -7.205452421E-04 1.669247285E-03
 1.009999990E+00 -6.981872721E-04 1.651255065E-03
 1.009999990E+00 -6.765303551E-04 1.632320345E-03
 1.009999990E+00 -6.555509754E-04 1.612526481E-03
 1.009999990E+00 -6.352264318E-04 1.591953216E-03
 1.009999990E+00 -6.155346637E-04 1.570683671E-03
 1.009999990E+00 -5.964544252E-04 1.548797358E-03
 1.009999990E+00 -5.779651692E-04 1.526373089E-03
 1.009999990E+00 -5.600470467E-04 1.503485371E-03
 1.009999990E+00 -5.426807911E-04 1.480204868E-03
 1.009999990E+00 -5.258478341E-04 1.456603990E-03
 1.009999990E+00 -5.095301894E-04 1.432747697E-03
 1.009999990E+00 -4.937105114E-04 1.408697921E-03
 1.009999990E+00 -4.783718905E-04 1.384515897E-03
 1.009999990E+00 -4.634981742E-04 1.360255643E-03
 1.009999990E+00 -4.490735591E-04 1.335966052E-03
 1.009999990E+00 -4.350828531E-04 1.311696833E-03
 1.009999990E+00 -4.215113586E-04 1.287494204E-03
 1.009999990E+00 -4.083447857E-04 1.263394486E-03
 1.009999990E+00 -3.955693974E-04 1.239440171E-03
 1.009999990E+00 -3.831718350E-04 1.215657685E-03
 1.009999990E+00 -3.711392346E-04 1.192079391E-03
 1.009999990E+00 -3.594591108E-04 1.168734278E-03
 1.009999990E+00 -3.481193271E-04 1.145641785E-03
 1.009999990E+00 -3.371082421E-04 1.122825546E-03
 1.009999990E+00 -3.264145344E-04 1.100306981E-03
 1.009999990E+00 -3.160272317E-04 1.078099594E-03
 1.009999990E+00 -3.059357114E-04 1.056214678E-03
 1.009999990E+00 -2.961296996E-04 1.034662593E-03
 1.009999990E+00 -2.865992719E-04 1.013454283E-03
 1.009999990E+00 -2.773347951E-04 9.925991762E-04
 1.009999990E+00 -2.683268976E-04 9.721005918E-04
 1.009999990E+00 -2.595665574E-04 9.519639425E-04
 1.009999990E+00 -2.510449849E-04 9.321889374E-04
 1.009999990E+00 -2.427537402E-04 9.127763333E-04
 1.009999990E+00 -2.346845286E-04 8.937274688E-04
 1.009999990E+00 -2.268294047E-04 8.750426932E-04
 1.009999990E+00 -2.191806125E-04 8.567167097E-04
 1.009999990E+00 -2.117306431E-04 8.387477137E-04
 1.009999990E+00 -2.044722060E-04 8.211312816E-04
 1.009999990E+00 -1.973982435E-04 8.038606611E-04
 1.009999990E+00 -1.905019017E-04 7.869355613E-04
 1.009999990E+00 -1.837765012E-04 7.703470765E-04
 1.009999990E+00 -1.772155811E-04 7.540865918E-04
 1.009999990E+00 -1.708128548E-04 7.381491596E-04
 1.009999990E+00 -1.645622397E-04 7.225255831E-04
 1.009999990E+00 -1.584577694E-04 7.072116714E-04
 1.009999990E+00 -1.524936815E-04 6.921986933E-04
 1.009999990E+00 -1.466643589E-04 6.774778594E-04
 1.009999990E+00 -1.409643592E-04 6.630392745E-04
 1.009999990E+00 -1.353883417E-04 6.488774088E-04
 1.009999990E+00 -1.299311552E-04 6.349815521E-04
 1.009999990E+00 -1.245877211E-04 6.213429733E-04
 1.009999990E+00 -1.193531352E-04 6.079529412E-04
 1.009999990E+00 -1.142226029E-04 5.948026665E-04
 1.009999990E+00 -1.091914455E-04 5.818847567E-04
 1.009999990E+00 -1.042550866E-04 5.691907136E-04
 1.009999990E+00 -9.940905875E-05 5.567086046E-04
 1.009999990E+00 -9.464901086E-05 5.444302224E-04
 1.009999990E+00 -8.997067198E-05 5.323492805E-04
 1.009999990E+00 -8.536985843E-05 5.204550107E-04
 1.009999990E+00 -8.084248839E-05 5.087386817E-04
 1.009999990E+00 -7.638454554E-05 4.971916787E-04
 1.009999990E+00 -7.199210813E-05 4.858064931E-04
 1.009999990E+00 -6.766131264E-05 4.745736078E-04
 1.009999990E+00 -6.338836829E-05 4.634828656E-04
 1.009999990E+00 -5.916956070E-05 4.525281838E-04
 1.009999990E+00 -5.500121188E-05 4.417003656E-04
 1.009999990E+00 -5.087972022E-05 4.309905926E-04
 1.009999990E+00 -4.680152415E-05 4.203917924E-04
 1.009999990E+00 -4.276312029E-05 4.098938662E-04
 1.009999990E+00 -3.876104165E-05 3.994891886E-04
 1.009999990E+00 -3.479186489E-05 3.891707165E-04
 1.009999990E+00 -3.085220305E-05 3.789295733E-04
 1.009999990E+00 -2.693869828E-05 3.687576973E-04
 1.009999990E+00 -2.304802729E-05 3.586469684E-04
 1.009999990E+00 -1.917689042E-05 3.485888592E-04
 1.009999990E+00 -1.532200804E-05 3.385762393E-04
 1.009999990E+00 -1.148011779E-05 3.286019200E-04
 1.009999990E+00 -7.647975508E-06 3.186558897E-04
 1.009999990E+00 -3.822345661E-06 3.046130296E-04
 1.009999990E+00 0.000000000E+00 2.988363267E-04
 1.009999990E+00 3.822347935E-06 2.930510964E-04
 1.009999990E+00 7.647980055E-06 2.790132421E-04
 1.009999990E+00 1.148012416E-05 2.690986148E-04
 1.009999990E+00 1.532201532E-05 2.591669618E-04
 1.009999990E+00 1.917690133E-05 2.492110361E-04
 1.009999990E+00 2.304804002E-05 2.392226015E-04
 1.009999990E+00 2.693871284E-05 2.291936107E-04
 1.009999990E+00 3.085221761E-05 2.191167150E-04
 1.009999990E+00 3.479188308E-05 2.089841437E-04
 1.009999990E+00 3.876106348E-05 1.987882133E-04
 1.009999990E+00 4.276314212E-05 1.885209931E-04
 1.009999990E+00 4.680154962E-05 1.781747269E-04
 1.009999990E+00 5.087974569E-05 1.677414257E-04
 1.009999990E+00 5.500124098E-05 1.572133770E-04
 1.009999990E+00 5.916958980E-05 1.465829118E-04
 1.009999990E+00 6.338840467E-05 1.358418231E-04
 1.009999990E+00 6.766134902E-05 1.249821653E-04
 1.009999990E+00 7.199214451E-05 1.139960004E-04
 1.009999990E+00 7.638458919E-05 1.028754123E-04
 1.009999990E+00 8.084253204E-05 9.161213529E-05
 1.009999990E+00 8.536990208E-05 8.019805682E-05
 1.009999990E+00 8.997071563E-05 6.862529699E-05
 1.009999990E+00 9.464906179E-05 5.688551391E-05
 1.009999990E+00 9.940911696E-05 4.497017653E-05
 1.009999990E+00 1.042551376E-04 3.287159780E-05
 1.009999990E+00 1.091915037E-04 2.058171776E-05
 1.009999990E+00 1.142226683E-04 8.091478776E-06
 1.009999990E+00 1.193532007E-04 -4.607270967E-06
 1.009999990E+00 1.245877793E-04 -1.752241951E-05
 1.009999990E+00 1.299312280E-04 -3.066238787E-05
 1.009999990E+00 1.353884290E-04 -4.403521234E-05
 1.009999990E+00 1.409644319E-04 -5.764907110E-05
 1.009999990E+00 1.466644462E-04 -7.151319005E-05
 1.009999990E+00 1.524937543E-04 -8.563443407E-05
 1.009999990E+00 1.584578567E-04 -1.000216434E-04
 1.009999990E+00 1.645623270E-04 -1.146830546E-04
 1.009999990E+00 1.708129566E-04 -1.296269620E-04
 1.009999990E+00 1.772156829E-04 -1.448597031E-04
 1.009999990E+00 1.837766031E-04 -1.603899582E-04
 1.009999990E+00 1.905020035E-04 -1.762240136E-04
 1.009999990E+00 1.973983599E-04 -1.923703676E-04
 1.009999990E+00 2.044723224E-04 -2.088375331E-04
 1.009999990E+00 2.117307595E-04 -2.256299922E-04
 1.009999990E+00 2.191807289E-04 -2.427551226E-04
 1.009999990E+00 2.268295357E-04 -2.602196182E-04
 1.009999990E+00 2.346846741E-04 -2.780285431E-04
 1.009999990E+00 2.427538711E-04 -2.961891005E-04
 1.009999990E+00 2.510451304E-04 -3.147055977E-04
 1.009999990E+00 2.595667029E-04 -3.335818765E-04
 1.009999990E+00 2.683270432E-04 -3.528221278E-04
 1.009999990E+00 2.773349406E-04 -3.724315611E-04
 1.009999990E+00 2.865994466E-04 -3.924124176E-04
 1.009999990E+00 2.961298742E-04 -4.127682478E-04
 1.009999990E+00 3.059358860E-04 -4.334994883E-04
 1.009999990E+00 3.160274064E-04 -4.546057899E-04
 1.009999990E+00 3.264147381E-04 -4.760877055E-04
 1.009999990E+00 3.371084458E-04 -4.979458754E-04
 1.009999990E+00 3.481195308E-04 -5.201800959E-04
 1.009999990E+00 3.594593145E-04 -5.427853903E-04
 1.009999990E+00 3.711394675E-04 -5.657563452E-04
 1.009999990E+00 3.831720969E-04 -5.890909233E-04
 1.009999990E+00 3.955696302E-04 -6.127814995E-04
 1.009999990E+00 4.083450476E-04 -6.368190516E-04
 1.009999990E+00 4.215116205E-04 -6.611997960E-04
 1.009999990E+00 4.350831150E-04 -6.859094137E-04
 1.009999990E+00 4.490738502E-04 -7.109394646E-04
 1.009999990E+00 4.634984653E-04 -7.362751639E-04
 1.009999990E+00 4.783722106E-04 -7.619002718E-04
 1.009999990E+00 4.937108024E-04 -7.878006436E-04
 1.009999990E+00 5.095305387E-04 -8.139594574E-04
 1.009999990E+00 5.258481833E-04 -8.403552347E-04
 1.009999990E+00 5.426811404E-04 -8.669673698E-04
 1.009999990E+00 5.600473960E-04 -8.937739185E-04
 1.009999990E+00 5.779655767E-04 -9.207476978E-04
 1.009999990E+00 5.964548327E-04 -9.478637367E-04
 1.009999990E+00 6.155350711E-04 -9.750950849E-04
 1.009999990E+00 6.352268392E-04 -1.002410776E-03
 1.009999990E+00 6.555513828E-04 -1.029778738E-03
 1.009999990E+00 6.765308208E-04 -1.057165093E-03
 1.009999990E+00 6.981877377E-04 -1.084537013E-03
 1.009999990E+00 7.205457659E-04 -1.111855148E-03
 1.009999990E+00 7.436291780E-04 -1.139081432E-03
 1.009999990E+00 7.674631779E-04 -1.166178728E-03
 1.009999990E+00 7.920737844E-04 -1.193108503E-03
 1.009999990E+00 8.174880059E-04 -1.219826401E-03
 1.009999990E+00 8.437336073E-04 -1.246292377E-03
 1.009999990E+00 8.708394598E-04 -1.272462425E-03
 1.009999990E+00 8.988354239E-04 -1.298296032E-03
 1.009999990E+00 9.277523495E-04 -1.323751872E-03
 1.009999990E+00 9.576220764E-04 -1.348787337E-03
 1.009999990E+00 9.884777246E-04 -1.373362495E-03
 1.009999990E+00 1.020353404E-03 -1.397436601E-03
 1.009999990E+00 1.053284504E-03 -1.420974964E-03
 1.009999990E+00 1.087307581E-03 -1.443941728E-03
 1.009999990E+00 1.122460468E-03 -1.466303831E-03
 1.009999990E+00 1.158782397E-03 -1.488032751E-03
 1.009999990E+00 1.196313766E-03 -1.509103226E-03
 1.009999990E+00 1.235096599E-03 -1.529493835E-03
 1.009999990E+00 1.275174203E-03 -1.549191424E-03
 1.009999990E+00 1.316591515E-03 -1.568184583E-03
 1.009999990E+00 1.359394984E-03 -1.586465514E-03
 1.009999990E+00 1.403632574E-03 -1.604034216E-03
 1.009999990E+00 1.449354109E-03 -1.620897208E-03
 1.009999990E+00 1.496611047E-03 -1.637067646E-03
 1.009999990E+00 1.545456587E-03 -1.652564504E-03
 1.009999990E+00 1.595945912E-03 -1.667413744E-03
 1.009999990E+00 1.648136065E-03 -1.681647729E-03
 1.009999990E+00 1.702085836E-03 -1.695304760E-03
 1.009999990E+00 1.757856458E-03 -1.708428841E-03
 1.009999990E+00 1.815511147E-03 -1.721069100E-03
 1.009999990E+00 1.875115326E-03 -1.733279903E-03
 1.009999990E+00 1.936736517E-03 -1.745118876E-03
 1.009999990E+00 2.000444802E-03 -1.756641315E-03
 1.009999990E+00 2.066312591E-03 -1.767916721E-03
 1.009999990E+00 2.134415088E-03 -1.779010403E-03
 1.009999990E+00 2.204829827E-03 -1.789986854E-03
 1.009999990E+00 2.277636901E-03 -1.800908125E-03
 1.009999990E+00 2.352919895E-03 -1.811836381E-03
 1.009999990E+00 2.430764493E-03 -1.822830061E-03
 1.009999990E+00 2.511259634E-03 -1.833942719E-03
 1.009999990E+00 2.594497753E-03 -1.845224062E-03
 1.009999990E+00 2.680574078E-03 -1.856722985E-03
 1.009999990E+00 2.769587096E-03 -1.868472900E-03
 1.009999990E+00 2.861639485E-03 -1.880505588E-03
 1.009999990E+00 2.956836252E-03 -1.892844215E-03
 1.009999990E+00 3.055287292E-03 -1.905506128E-03
 1.009999990E+00 3.157105530E-03 -1.918498660E-03
 1.009999990E+00 3.262408311E-03 -1.931819133E-03
 1.009999990E+00 3.371316940E-03 -1.945468364E-03
 1.009999990E+00 3.483956680E-03 -1.959435176E-03
 1.009999990E+00 3.600457450E-03 -1.973700244E-03
 1.009999990E+00 3.720953828E-03 -1.988240052E-03
 1.009999990E+00 3.845584812E-03 -2.003031783E-03
 1.009999990E+00 3.974494524E-03 -2.018039348E-03
 1.009999990E+00 4.107831512E-03 -2.033217577E-03
 1.009999990E+00 4.245750606E-03 -2.048523631E-03
 1.009999990E+00 4.388411064E-03 -2.063911175E-03
 1.009999990E+00 4.535978194E-03 -2.079338999E-03
 1.009999990E+00 4.688622896E-03 -2.094748430E-03
 1.009999990E+00 4.846522119E-03 -2.110087546E-03
 1.009999990E+00 5.009858869E-03 -2.125303028E-03
 1.009999990E+00 5.178822670E-03 -2.140335040E-03
 1.009999990E+00 5.353610031E-03 -2.155134454E-03
 1.009999990E+00 5.534423050E-03 -2.169644693E-03
 1.009999990E+00 5.721473135E-03 -2.183815697E-03
 1.009999990E+00 5.914976355E-03 -2.197582275E-03
 1.009999990E+00 6.115158554E-03 -2.210872946E-03
 1.009999990E+00 6.322252564E-03 -2.223619726E-03
 1.009999990E+00 6.536499131E-03 -2.235745778E-03
 1.009999990E+00 6.758147385E-03 -2.247167286E-03
 1.009999990E+00 6.987456232E-03 -2.257793210E-03
 1.009999990E+00 7.224692032E-03 -2.267527860E-03
 1.009999990E+00 7.470131386E-03 -2.276272280E-03
 1.009999990E+00 7.724061143E-03 -2.283945214E-03
 1.009999990E+00 7.986776531E-03 -2.290439559E-03
 1.009999990E+00 8.258583955E-03 -2.295812359E-03
 1.009999990E+00 8.539800532E-03 -2.302858746E-03
 1.009999990E+00 8.830755018E-03 -2.303627785E-03
 1.009999990E+00 9.131785482E-03 -2.295148326E-03
 1.009999990E+00 9.443244897E-03 -2.282419009E-03
 1.009999990E+00 9.765495546E-03 -2.267330885E-03
 1.009999990E+00 1.009891182E-02 -2.249485813E-03
 1.009999990E+00 1.044388302E-02 -2.228327328E-03
 1.009999990E+00 1.080081146E-02 -2.203357639E-03
 1.009999990E+00 1.117011346E-02 -2.174197929E-03
 1.009999990E+00 1.155222021E-02 -2.140564611E-03
 1.009999990E+00 1.194757689E-02 -2.101981780E-03
 1.009999990E+00 1.235664450E-02 -2.058019629E-03
 1.009999990E+00 1.277989987E-02 -2.008277457E-03
 1.009999990E+00 1.321783569E-02 -1.952572609E-03
 1.009999990E+00 1.367096324E-02 -1.891054213E-03
 1.009999990E+00 1.413981058E-02 -1.824467792E-03
 1.009999990E+00 1.462492254E-02 -1.754313475E-03
 1.009999990E+00 1.512686349E-02 -1.681531779E-03
 1.009999990E+00 1.564621925E-02 -1.578303170E-03
 1.009999990E+00 1.618359052E-02 -1.440966036E-03
 1.009999990E+00 1.673959941E-02 -1.303927391E-03
 1.009999990E+00 1.731489226E-02 -1.173459692E-03
 1.009999990E+00 1.791014336E-02 -1.043883967E-03
 1.009999990E+00 1.852604933E-02 -9.113092674E-04
 1.009999990E+00 1.916333288E-02 -7.736935513E-04
 1.009999990E+00 1.982275024E-02 -6.302566617E-04
 1.009999990E+00 2.050508372E-02 -4.825421202E-04
 1.009999990E+00 2.121114731E-02 -3.372443607E-04
 1.009999990E+00 2.194179967E-02 -2.078735852E-04
 1.009999990E+00 2.269793302E-02 -1.096010092E-04
 1.009999990E+00 2.348048054E-02 -4.899058695E-05
 1.009999990E+00 2.429040708E-02 -1.984631854E-05
 1.009999990E+00 2.512871847E-02 -8.243846423E-06
 1.009999990E+00 2.599645779E-02 -3.716072797E-06
 1.009999990E+00 2.689467557E-02 -1.543035069E-06
 1.009999990E+00 2.782447077E-02 -5.370742997E-07
 1.009999990E+00 2.878697403E-02 -1.576515416E-07
 1.009999990E+00 2.978334390E-02 -4.145688237E-08
 1.009999990E+00 3.081477992E-02 -1.008055506E-08
 1.009999990E+00 3.188249841E-02 -2.376397967E-09
 1.009999990E+00 3.298775852E-02 -6.146311793E-10
 1.009999990E+00 3.413188085E-02 -2.410192601E-10
 1.009999990E+00 3.531622514E-02 -1.701943031E-10
 1.009999990E+00 3.654219210E-02 -1.615180767E-10
 1.009999990E+00 3.781123832E-02 -1.650125037E-10
 1.009999990E+00 3.912485763E-02 -1.708757996E-10
 1.009999990E+00 4.048459977E-02 -1.772651748E-10
 1.009999990E+00 4.189208150E-02 -1.838435931E-10
 1.009999990E+00 4.334897920E-02 -1.905344077E-10
 1.009999990E+00 4.485701397E-02 -1.973282371E-10
 1.009999990E+00 4.641798139E-02 -2.042291058E-10
 1.009999990E+00 4.803373292E-02 -2.112604119E-10
 1.009999990E+00 4.970618710E-02 -2.184483566E-10
 1.009999990E+00 5.143732578E-02 -2.258205983E-10
 1.009999990E+00 5.322920904E-02 -2.334002436E-10
 1.009999990E+00 5.508396775E-02 -2.411973954E-10