# CFD data extracted (using Tecplot) by interpolating from original grid onto fixed set of points
# SST model
VARIABLES = "X","Y","u/Uref"
ZONE T="CFL3D, x=1.01"
 1.009999990E+00 -2.000000000E+01 9.994120598E-01
 1.009999990E+00 -1.935783958E+01 9.993882775E-01
 1.009999990E+00 -1.873642540E+01 9.993728995E-01
 1.009999990E+00 -1.813489723E+01 9.993531704E-01
 1.009999990E+00 -1.755247307E+01 9.993329644E-01
 1.009999990E+00 -1.698842812E+01 9.993121624E-01
 1.009999990E+00 -1.644208908E+01 9.992908239E-01
 1.009999990E+00 -1.591282177E+01 9.992688298E-01
 1.009999990E+00 -1.540002155E+01 9.992461205E-01
 1.009999990E+00 -1.490311527E+01 9.992228150E-01
 1.009999990E+00 -1.442155170E+01 9.991987348E-01
 1.009999990E+00 -1.395480156E+01 9.991739988E-01
 1.009999990E+00 -1.350235271E+01 9.991486669E-01
 1.009999990E+00 -1.306371021E+01 9.991224408E-01
 1.009999990E+00 -1.263839531E+01 9.990954399E-01
 1.009999990E+00 -1.222593880E+01 9.990676641E-01
 1.009999990E+00 -1.182589436E+01 9.990391135E-01
 1.009999990E+00 -1.143781471E+01 9.990097284E-01
 1.009999990E+00 -1.106141567E+01 9.989794493E-01
 1.009999990E+00 -1.069646168E+01 9.989483953E-01
 1.009999990E+00 -1.034272861E+01 9.989164472E-01
 1.009999990E+00 -9.999948502E+00 9.988836050E-01
 1.009999990E+00 -9.667881966E+00 9.988499284E-01
 1.009999990E+00 -9.346258163E+00 9.988152981E-01
 1.009999990E+00 -9.034824371E+00 9.987797737E-01
 1.009999990E+00 -8.733310699E+00 9.987434745E-01
 1.009999990E+00 -8.441459656E+00 9.987061620E-01
 1.009999990E+00 -8.159008026E+00 9.986680150E-01
 1.009999990E+00 -7.885692596E+00 9.986289144E-01
 1.009999990E+00 -7.621260166E+00 9.985889792E-01
 1.009999990E+00 -7.365450859E+00 9.985481501E-01
 1.009999990E+00 -7.118018627E+00 9.985064864E-01
 1.009999990E+00 -6.878712177E+00 9.984639883E-01
 1.009999990E+00 -6.647291660E+00 9.984205365E-01
 1.009999990E+00 -6.423519135E+00 9.983763695E-01
 1.009999990E+00 -6.207160950E+00 9.983311892E-01
 1.009999990E+00 -5.997991562E+00 9.982853532E-01
 1.009999990E+00 -5.795789719E+00 9.982386827E-01
 1.009999990E+00 -5.600339890E+00 9.981912374E-01
 1.009999990E+00 -5.411433220E+00 9.981431365E-01
 1.009999990E+00 -5.228827953E+00 9.980942607E-01
 1.009999990E+00 -5.052223682E+00 9.980447292E-01
 1.009999990E+00 -4.881423950E+00 9.979946613E-01
 1.009999990E+00 -4.716265202E+00 9.979439378E-01
 1.009999990E+00 -4.556583405E+00 9.978926182E-01
 1.009999990E+00 -4.402204514E+00 9.978408813E-01
 1.009999990E+00 -4.252981186E+00 9.977887273E-01
 1.009999990E+00 -4.108750820E+00 9.977361560E-01
 1.009999990E+00 -3.969357491E+00 9.976833463E-01
 1.009999990E+00 -3.834659100E+00 9.976302981E-01
 1.009999990E+00 -3.704500675E+00 9.975771308E-01
 1.009999990E+00 -3.578741312E+00 9.975239038E-01
 1.009999990E+00 -3.457240820E+00 9.974707365E-01
 1.009999990E+00 -3.339855671E+00 9.974176288E-01
 1.009999990E+00 -3.226454258E+00 9.973646402E-01
 1.009999990E+00 -3.116902113E+00 9.973120093E-01
 1.009999990E+00 -3.011067867E+00 9.972596765E-01
 1.009999990E+00 -2.908826351E+00 9.972078204E-01
 1.009999990E+00 -2.810053110E+00 9.971564412E-01
 1.009999990E+00 -2.714627981E+00 9.971055984E-01
 1.009999990E+00 -2.622434855E+00 9.970555305E-01
 1.009999990E+00 -2.533361197E+00 9.970061183E-01
 1.009999990E+00 -2.447297573E+00 9.969574213E-01
 1.009999990E+00 -2.364140272E+00 9.969094992E-01
 1.009999990E+00 -2.283789158E+00 9.968623519E-01
 1.009999990E+00 -2.206146479E+00 9.968159795E-01
 1.009999990E+00 -2.131122589E+00 9.967703819E-01
 1.009999990E+00 -2.058630943E+00 9.967255592E-01
 1.009999990E+00 -1.988584638E+00 9.966815114E-01
 1.009999990E+00 -1.920913339E+00 9.966381192E-01
 1.009999990E+00 -1.855541468E+00 9.965950251E-01
 1.009999990E+00 -1.792391539E+00 9.965521097E-01
 1.009999990E+00 -1.731388450E+00 9.965094328E-01
 1.009999990E+00 -1.672460914E+00 9.964665771E-01
 1.009999990E+00 -1.615538955E+00 9.964233041E-01
 1.009999990E+00 -1.560554504E+00 9.963794351E-01
 1.009999990E+00 -1.507442951E+00 9.963344336E-01
 1.009999990E+00 -1.456141472E+00 9.962877631E-01
 1.009999990E+00 -1.406588554E+00 9.962391853E-01
 1.009999990E+00 -1.358725309E+00 9.961881042E-01
 1.009999990E+00 -1.312495232E+00 9.961338639E-01
 1.009999990E+00 -1.267842770E+00 9.960759282E-01
 1.009999990E+00 -1.224714160E+00 9.960136414E-01
 1.009999990E+00 -1.183058500E+00 9.959462881E-01
 1.009999990E+00 -1.142825365E+00 9.958730936E-01
 1.009999990E+00 -1.103965998E+00 9.957934022E-01
 1.009999990E+00 -1.066433787E+00 9.957062602E-01
 1.009999990E+00 -1.030183315E+00 9.956109524E-01
 1.009999990E+00 -9.951701760E-01 9.955067039E-01
 1.009999990E+00 -9.613518715E-01 9.953926802E-01
 1.009999990E+00 -9.286869764E-01 9.952679276E-01
 1.009999990E+00 -8.971354365E-01 9.951316714E-01
 1.009999990E+00 -8.666585088E-01 9.949831963E-01
 1.009999990E+00 -8.372187614E-01 9.948215485E-01
 1.009999990E+00 -8.087800145E-01 9.946461320E-01
 1.009999990E+00 -7.813075185E-01 9.944561124E-01
 1.009999990E+00 -7.547675371E-01 9.942508340E-01
 1.009999990E+00 -7.291278839E-01 9.940297604E-01
 1.009999990E+00 -7.043573856E-01 9.937922359E-01
 1.009999990E+00 -6.804260612E-01 9.935377836E-01
 1.009999990E+00 -6.573053598E-01 9.932659864E-01
 1.009999990E+00 -6.349676251E-01 9.929763675E-01
 1.009999990E+00 -6.133861542E-01 9.926688671E-01
 1.009999990E+00 -5.925353169E-01 9.923439622E-01
 1.009999990E+00 -5.723937154E-01 9.920003414E-01
 1.009999990E+00 -5.529382825E-01 9.916372895E-01
 1.009999990E+00 -5.341456532E-01 9.912554026E-01
 1.009999990E+00 -5.159932971E-01 9.908554554E-01
 1.009999990E+00 -4.984593987E-01 9.904378057E-01
 1.009999990E+00 -4.815229774E-01 9.900023341E-01
 1.009999990E+00 -4.651636481E-01 9.895491600E-01
 1.009999990E+00 -4.493618011E-01 9.890785813E-01
 1.009999990E+00 -4.340984523E-01 9.885909557E-01
 1.009999990E+00 -4.193552732E-01 9.880867004E-01
 1.009999990E+00 -4.051145911E-01 9.875662923E-01
 1.009999990E+00 -3.913592696E-01 9.870302081E-01
 1.009999990E+00 -3.780727983E-01 9.864789844E-01
 1.009999990E+00 -3.652392030E-01 9.859130979E-01
 1.009999990E+00 -3.528430760E-01 9.853332639E-01
 1.009999990E+00 -3.408695161E-01 9.847400188E-01
 1.009999990E+00 -3.293041289E-01 9.841338992E-01
 1.009999990E+00 -3.181329966E-01 9.835154414E-01
 1.009999990E+00 -3.073426485E-01 9.828853011E-01
 1.009999990E+00 -2.969201505E-01 9.822442532E-01
 1.009999990E+00 -2.868529260E-01 9.815927148E-01
 1.009999990E+00 -2.771288455E-01 9.809313416E-01
 1.009999990E+00 -2.677361369E-01 9.802606702E-01
 1.009999990E+00 -2.586635351E-01 9.795812964E-01
 1.009999990E+00 -2.499000579E-01 9.788938165E-01
 1.009999990E+00 -2.414351106E-01 9.781987667E-01
 1.009999990E+00 -2.332584411E-01 9.774966240E-01
 1.009999990E+00 -2.253601849E-01 9.767880440E-01
 1.009999990E+00 -2.177307606E-01 9.760733843E-01
 1.009999990E+00 -2.103609294E-01 9.753531814E-01
 1.009999990E+00 -2.032417506E-01 9.746279120E-01
 1.009999990E+00 -1.963646263E-01 9.738979340E-01
 1.009999990E+00 -1.897211969E-01 9.731638432E-01
 1.009999990E+00 -1.833034307E-01 9.724258780E-01
 1.009999990E+00 -1.771035492E-01 9.716845751E-01
 1.009999990E+00 -1.711140722E-01 9.709402919E-01
 1.009999990E+00 -1.653277576E-01 9.701932669E-01
 1.009999990E+00 -1.597376317E-01 9.694440365E-01
 1.009999990E+00 -1.543369889E-01 9.686927199E-01
 1.009999990E+00 -1.491193026E-01 9.679397345E-01
 1.009999990E+00 -1.440783441E-01 9.671853781E-01
 1.009999990E+00 -1.392080635E-01 9.664300084E-01
 1.009999990E+00 -1.345026344E-01 9.656737447E-01
 1.009999990E+00 -1.299564689E-01 9.649170041E-01
 1.009999990E+00 -1.255641431E-01 9.641600251E-01
 1.009999990E+00 -1.213204339E-01 9.634027481E-01
 1.009999990E+00 -1.172202975E-01 9.626464844E-01
 1.009999990E+00 -1.132588461E-01 9.618917108E-01
 1.009999990E+00 -1.094313934E-01 9.611346722E-01
 1.009999990E+00 -1.057334840E-01 9.603794813E-01
 1.009999990E+00 -1.021610349E-01 9.596257210E-01
 1.009999990E+00 -9.870979190E-02 9.588723183E-01
 1.009999990E+00 -9.537564218E-02 9.581206441E-01
 1.009999990E+00 -9.215459973E-02 9.573709965E-01
 1.009999990E+00 -8.904282004E-02 9.566231370E-01
 1.009999990E+00 -8.603659272E-02 9.558773637E-01
 1.009999990E+00 -8.313232660E-02 9.551339746E-01
 1.009999990E+00 -8.032655716E-02 9.543927908E-01
 1.009999990E+00 -7.761594653E-02 9.536539912E-01
 1.009999990E+00 -7.499725372E-02 9.529176354E-01
 1.009999990E+00 -7.246736437E-02 9.521839023E-01
 1.009999990E+00 -7.002326101E-02 9.514527917E-01
 1.009999990E+00 -6.766202301E-02 9.507246017E-01
 1.009999990E+00 -6.538084894E-02 9.499993324E-01
 1.009999990E+00 -6.317700446E-02 9.492771626E-01
 1.009999990E+00 -6.104788184E-02 9.485580325E-01
 1.009999990E+00 -5.899093673E-02 9.478422403E-01
 1.009999990E+00 -5.700372905E-02 9.471298456E-01
 1.009999990E+00 -5.508388579E-02 9.464207292E-01
 1.009999990E+00 -5.322912708E-02 9.457154274E-01
 1.009999990E+00 -5.143724382E-02 9.450134039E-01
 1.009999990E+00 -4.970610887E-02 9.443153143E-01
 1.009999990E+00 -4.803365469E-02 9.436209202E-01
 1.009999990E+00 -4.641790316E-02 9.429305196E-01
 1.009999990E+00 -4.485693574E-02 9.422440529E-01
 1.009999990E+00 -4.334890097E-02 9.415616393E-01
 1.009999990E+00 -4.189200699E-02 9.408835769E-01
 1.009999990E+00 -4.048452526E-02 9.402096868E-01
 1.009999990E+00 -3.912478313E-02 9.395402670E-01
 1.009999990E+00 -3.781116754E-02 9.388751388E-01
 1.009999990E+00 -3.654212132E-02 9.382148981E-01
 1.009999990E+00 -3.531615436E-02 9.375590682E-01
 1.009999990E+00 -3.413181379E-02 9.369084239E-01
 1.009999990E+00 -3.298769146E-02 9.362623692E-01
 1.009999990E+00 -3.188243136E-02 9.356216192E-01
 1.009999990E+00 -3.081471846E-02 9.349858761E-01
 1.009999990E+00 -2.978328243E-02 9.343556762E-01
 1.009999990E+00 -2.878691442E-02 9.337307215E-01
 1.009999990E+00 -2.782441489E-02 9.331114292E-01
 1.009999990E+00 -2.689462155E-02 9.324977994E-01
 1.009999990E+00 -2.599640377E-02 9.318892360E-01
 1.009999990E+00 -2.512866817E-02 9.312850237E-01
 1.009999990E+00 -2.429035865E-02 9.306880236E-01
 1.009999990E+00 -2.348043397E-02 9.301141500E-01
 1.009999990E+00 -2.269789018E-02 9.295361638E-01
 1.009999990E+00 -2.194175869E-02 9.286591411E-01
 1.009999990E+00 -2.121111006E-02 9.266801476E-01
 1.009999990E+00 -2.050504647E-02 9.226096272E-01
 1.009999990E+00 -1.982271671E-02 9.161250591E-01
 1.009999990E+00 -1.916330121E-02 9.077644944E-01
 1.009999990E+00 -1.852601953E-02 8.984344006E-01
 1.009999990E+00 -1.791011542E-02 8.887810707E-01
 1.009999990E+00 -1.731486619E-02 8.791109920E-01
 1.009999990E+00 -1.673957519E-02 8.695300221E-01
 1.009999990E+00 -1.618356816E-02 8.600488901E-01
 1.009999990E+00 -1.564619876E-02 8.506330252E-01
 1.009999990E+00 -1.512684394E-02 8.412165046E-01
 1.009999990E+00 -1.462490298E-02 8.317073584E-01
 1.009999990E+00 -1.413979195E-02 8.220373392E-01
 1.009999990E+00 -1.367094647E-02 8.122476339E-01
 1.009999990E+00 -1.321781985E-02 8.024932146E-01
 1.009999990E+00 -1.277988404E-02 7.929368615E-01
 1.009999990E+00 -1.235662960E-02 7.836820483E-01
 1.009999990E+00 -1.194756292E-02 7.747658491E-01
 1.009999990E+00 -1.155220717E-02 7.661830187E-01
 1.009999990E+00 -1.117010135E-02 7.579128146E-01
 1.009999990E+00 -1.080079935E-02 7.499401569E-01
 1.009999990E+00 -1.044387184E-02 7.422668934E-01
 1.009999990E+00 -1.009890065E-02 7.349017262E-01
 1.009999990E+00 -9.765485302E-03 7.278266549E-01
 1.009999990E+00 -9.443235584E-03 7.209906578E-01
 1.009999990E+00 -9.131776169E-03 7.143488526E-01
 1.009999990E+00 -8.830745704E-03 7.078802586E-01
 1.009999990E+00 -8.539792150E-03 7.015720010E-01
 1.009999990E+00 -8.258575574E-03 6.954144239E-01
 1.009999990E+00 -7.986768149E-03 6.893984675E-01
 1.009999990E+00 -7.724053692E-03 6.835168600E-01
 1.009999990E+00 -7.470124401E-03 6.777610183E-01
 1.009999990E+00 -7.224685047E-03 6.721237302E-01
 1.009999990E+00 -6.987449713E-03 6.665984988E-01
 1.009999990E+00 -6.758141331E-03 6.611788273E-01
 1.009999990E+00 -6.536493078E-03 6.558587551E-01
 1.009999990E+00 -6.322246511E-03 6.506332755E-01
 1.009999990E+00 -6.115152966E-03 6.454975605E-01
 1.009999990E+00 -5.914971232E-03 6.404471993E-01
 1.009999990E+00 -5.721468013E-03 6.354771852E-01
 1.009999990E+00 -5.534418393E-03 6.305835843E-01
 1.009999990E+00 -5.353605375E-03 6.257622242E-01
 1.009999990E+00 -5.178818014E-03 6.210094690E-01
 1.009999990E+00 -5.009854678E-03 6.163216829E-01
 1.009999990E+00 -4.846517928E-03 6.116950512E-01
 1.009999990E+00 -4.688618705E-03 6.071271896E-01
 1.009999990E+00 -4.535974469E-03 6.026142836E-01
 1.009999990E+00 -4.388407338E-03 5.981538296E-01
 1.009999990E+00 -4.245747346E-03 5.937437415E-01
 1.009999990E+00 -4.107828252E-03 5.893807411E-01
 1.009999990E+00 -3.974491265E-03 5.850620270E-01
 1.009999990E+00 -3.845581785E-03 5.807853937E-01
 1.009999990E+00 -3.720950801E-03 5.765482783E-01
 1.009999990E+00 -3.600454656E-03 5.723482966E-01
 1.009999990E+00 -3.483953886E-03 5.681834221E-01
 1.009999990E+00 -3.371314146E-03 5.640513897E-01
 1.009999990E+00 -3.262405749E-03 5.599499345E-01
 1.009999990E+00 -3.157103201E-03 5.558770895E-01
 1.009999990E+00 -3.055284964E-03 5.518306494E-01
 1.009999990E+00 -2.956833923E-03 5.478086472E-01
 1.009999990E+00 -2.861637156E-03 5.438092947E-01
 1.009999990E+00 -2.769585000E-03 5.398302674E-01
 1.009999990E+00 -2.680571983E-03 5.358698368E-01
 1.009999990E+00 -2.594495658E-03 5.319263935E-01
 1.009999990E+00 -2.511257771E-03 5.279980302E-01
 1.009999990E+00 -2.430762630E-03 5.240830779E-01
 1.009999990E+00 -2.352918033E-03 5.201794505E-01
 1.009999990E+00 -2.277635271E-03 5.162857175E-01
 1.009999990E+00 -2.204828197E-03 5.124000907E-01
 1.009999990E+00 -2.134413458E-03 5.085213780E-01
 1.009999990E+00 -2.066311194E-03 5.046481490E-01
 1.009999990E+00 -2.000443172E-03 5.007792711E-01
 1.009999990E+00 -1.936735003E-03 4.969142079E-01
 1.009999990E+00 -1.875113929E-03 4.930521548E-01
 1.009999990E+00 -1.815509866E-03 4.891929328E-01
 1.009999990E+00 -1.757855178E-03 4.853366613E-01
 1.009999990E+00 -1.702084555E-03 4.814839959E-01
 1.009999990E+00 -1.648134785E-03 4.776356220E-01
 1.009999990E+00 -1.595944748E-03 4.737931192E-01
 1.009999990E+00 -1.545455540E-03 4.699580371E-01
 1.009999990E+00 -1.496609999E-03 4.661326706E-01
 1.009999990E+00 -1.449353062E-03 4.623196721E-01
 1.009999990E+00 -1.403631642E-03 4.585219026E-01
 1.009999990E+00 -1.359393937E-03 4.547426999E-01
 1.009999990E+00 -1.316590584E-03 4.509856999E-01
 1.009999990E+00 -1.275173272E-03 4.472548366E-01
 1.009999990E+00 -1.235095784E-03 4.435536861E-01
 1.009999990E+00 -1.196312951E-03 4.398867488E-01
 1.009999990E+00 -1.158781582E-03 4.362581670E-01
 1.009999990E+00 -1.122459769E-03 4.326722324E-01
 1.009999990E+00 -1.087306882E-03 4.291329682E-01
 1.009999990E+00 -1.053283806E-03 4.256445169E-01
 1.009999990E+00 -1.020352705E-03 4.222106636E-01
 1.009999990E+00 -9.884770261E-04 4.188350737E-01
 1.009999990E+00 -9.576214361E-04 4.155213237E-01
 1.009999990E+00 -9.277517092E-04 4.122723639E-01
 1.009999990E+00 -8.988348418E-04 4.090913832E-01
 1.009999990E+00 -8.708388777E-04 4.059803784E-01
 1.009999990E+00 -8.437330252E-04 4.029421508E-01
 1.009999990E+00 -8.174874238E-04 3.999784887E-01
 1.009999990E+00 -7.920732605E-04 3.970910311E-01
 1.009999990E+00 -7.674626540E-04 3.942807019E-01
 1.009999990E+00 -7.436286542E-04 3.915493190E-01
 1.009999990E+00 -7.205452421E-04 3.888968229E-01
 1.009999990E+00 -6.981872721E-04 3.863242567E-01
 1.009999990E+00 -6.765303551E-04 3.838314116E-01
 1.009999990E+00 -6.555509754E-04 3.814177811E-01
 1.009999990E+00 -6.352264318E-04 3.790837526E-01
 1.009999990E+00 -6.155346637E-04 3.768289387E-01
 1.009999990E+00 -5.964544252E-04 3.746517897E-01
 1.009999990E+00 -5.779651692E-04 3.725519776E-01
 1.009999990E+00 -5.600470467E-04 3.705282509E-01
 1.009999990E+00 -5.426807911E-04 3.685792983E-01
 1.009999990E+00 -5.258478341E-04 3.667037189E-01
 1.009999990E+00 -5.095301894E-04 3.649004400E-01
 1.009999990E+00 -4.937105114E-04 3.631680608E-01
 1.009999990E+00 -4.783718905E-04 3.615038991E-01
 1.009999990E+00 -4.634981742E-04 3.599069417E-01
 1.009999990E+00 -4.490735591E-04 3.583757281E-01
 1.009999990E+00 -4.350828531E-04 3.569077253E-01
 1.009999990E+00 -4.215113586E-04 3.555008769E-01
 1.009999990E+00 -4.083447857E-04 3.541540205E-01
 1.009999990E+00 -3.955693974E-04 3.528647721E-01
 1.009999990E+00 -3.831718350E-04 3.516314626E-01
 1.009999990E+00 -3.711392346E-04 3.504518270E-01
 1.009999990E+00 -3.594591108E-04 3.493241668E-01
 1.009999990E+00 -3.481193271E-04 3.482466042E-01
 1.009999990E+00 -3.371082421E-04 3.472172022E-01
 1.009999990E+00 -3.264145344E-04 3.462341130E-01
 1.009999990E+00 -3.160272317E-04 3.452948630E-01
 1.009999990E+00 -3.059357114E-04 3.443984091E-01
 1.009999990E+00 -2.961296996E-04 3.435425460E-01
 1.009999990E+00 -2.865992719E-04 3.427262604E-01
 1.009999990E+00 -2.773347951E-04 3.419466019E-01
 1.009999990E+00 -2.683268976E-04 3.412034214E-01
 1.009999990E+00 -2.595665574E-04 3.404938877E-01
 1.009999990E+00 -2.510449849E-04 3.398171365E-01
 1.009999990E+00 -2.427537402E-04 3.391718268E-01
 1.009999990E+00 -2.346845286E-04 3.385559320E-01
 1.009999990E+00 -2.268294047E-04 3.379682004E-01
 1.009999990E+00 -2.191806125E-04 3.374076486E-01
 1.009999990E+00 -2.117306431E-04 3.368730545E-01
 1.009999990E+00 -2.044722060E-04 3.363622427E-01
 1.009999990E+00 -1.973982435E-04 3.358747959E-01
 1.009999990E+00 -1.905019017E-04 3.354097605E-01
 1.009999990E+00 -1.837765012E-04 3.349660337E-01
 1.009999990E+00 -1.772155811E-04 3.345420063E-01
 1.009999990E+00 -1.708128548E-04 3.341367543E-01
 1.009999990E+00 -1.645622397E-04 3.337497413E-01
 1.009999990E+00 -1.584577694E-04 3.333801627E-01
 1.009999990E+00 -1.524936815E-04 3.330270946E-01
 1.009999990E+00 -1.466643589E-04 3.326891959E-01
 1.009999990E+00 -1.409643592E-04 3.323662877E-01
 1.009999990E+00 -1.353883417E-04 3.320569694E-01
 1.009999990E+00 -1.299311552E-04 3.317615390E-01
 1.009999990E+00 -1.245877211E-04 3.314785361E-01
 1.009999990E+00 -1.193531352E-04 3.312071264E-01
 1.009999990E+00 -1.142226029E-04 3.309471011E-01
 1.009999990E+00 -1.091914455E-04 3.306986392E-01
 1.009999990E+00 -1.042550866E-04 3.304595649E-01
 1.009999990E+00 -9.940905875E-05 3.302314281E-01
 1.009999990E+00 -9.464901086E-05 3.300116658E-01
 1.009999990E+00 -8.997067198E-05 3.298007548E-01
 1.009999990E+00 -8.536985843E-05 3.295983672E-01
 1.009999990E+00 -8.084248839E-05 3.294040263E-01
 1.009999990E+00 -7.638454554E-05 3.292167783E-01
 1.009999990E+00 -7.199210813E-05 3.290373981E-01
 1.009999990E+00 -6.766131264E-05 3.288650513E-01
 1.009999990E+00 -6.338836829E-05 3.286981583E-01
 1.009999990E+00 -5.916956070E-05 3.285386264E-01
 1.009999990E+00 -5.500121188E-05 3.283840120E-01
 1.009999990E+00 -5.087972022E-05 3.282362223E-01
 1.009999990E+00 -4.680152415E-05 3.280928135E-01
 1.009999990E+00 -4.276312029E-05 3.279550970E-01
 1.009999990E+00 -3.876104165E-05 3.278224170E-01
 1.009999990E+00 -3.479186489E-05 3.276938796E-01
 1.009999990E+00 -3.085220305E-05 3.275698721E-01
 1.009999990E+00 -2.693869828E-05 3.274508417E-01
 1.009999990E+00 -2.304802729E-05 3.273354173E-01
 1.009999990E+00 -1.917689042E-05 3.272239566E-01
 1.009999990E+00 -1.532200804E-05 3.271163702E-01
 1.009999990E+00 -1.148011779E-05 3.270124793E-01
 1.009999990E+00 -7.647975508E-06 3.269122243E-01
 1.009999990E+00 -3.822345661E-06 3.268153667E-01
 1.009999990E+00 0.000000000E+00 3.267244995E-01
 1.009999990E+00 3.822347935E-06 3.266318142E-01
 1.009999990E+00 7.647980055E-06 3.265449107E-01
 1.009999990E+00 1.148012416E-05 3.264610767E-01
 1.009999990E+00 1.532201532E-05 3.263803124E-01
 1.009999990E+00 1.917690133E-05 3.263025284E-01
 1.009999990E+00 2.304804002E-05 3.262276947E-01
 1.009999990E+00 2.693871284E-05 3.261558115E-01
 1.009999990E+00 3.085221761E-05 3.260862231E-01
 1.009999990E+00 3.479188308E-05 3.260201812E-01
 1.009999990E+00 3.876106348E-05 3.259570301E-01
 1.009999990E+00 4.276314212E-05 3.258961737E-01
 1.009999990E+00 4.680154962E-05 3.258383274E-01
 1.009999990E+00 5.087974569E-05 3.257839978E-01
 1.009999990E+00 5.500124098E-05 3.257315755E-01
 1.009999990E+00 5.916958980E-05 3.256833553E-01
 1.009999990E+00 6.338840467E-05 3.256371915E-01
 1.009999990E+00 6.766134902E-05 3.255953789E-01
 1.009999990E+00 7.199214451E-05 3.255556822E-01
 1.009999990E+00 7.638458919E-05 3.255195320E-01
 1.009999990E+00 8.084253204E-05 3.254874647E-01
 1.009999990E+00 8.536990208E-05 3.254584670E-01
 1.009999990E+00 8.997071563E-05 3.254332840E-01
 1.009999990E+00 9.464906179E-05 3.254120946E-01
 1.009999990E+00 9.940911696E-05 3.253948987E-01
 1.009999990E+00 1.042551376E-04 3.253810406E-01
 1.009999990E+00 1.091915037E-04 3.253727555E-01
 1.009999990E+00 1.142226683E-04 3.253681362E-01
 1.009999990E+00 1.193532007E-04 3.253691196E-01
 1.009999990E+00 1.245877793E-04 3.253751695E-01
 1.009999990E+00 1.299312280E-04 3.253861368E-01
 1.009999990E+00 1.353884290E-04 3.254024982E-01
 1.009999990E+00 1.409644319E-04 3.254253566E-01
 1.009999990E+00 1.466644462E-04 3.254539967E-01
 1.009999990E+00 1.524937543E-04 3.254894912E-01
 1.009999990E+00 1.584578567E-04 3.255314529E-01
 1.009999990E+00 1.645623270E-04 3.255809546E-01
 1.009999990E+00 1.708129566E-04 3.256383538E-01
 1.009999990E+00 1.772156829E-04 3.257040679E-01
 1.009999990E+00 1.837766031E-04 3.257780373E-01
 1.009999990E+00 1.905020035E-04 3.258606791E-01
 1.009999990E+00 1.973983599E-04 3.259530663E-01
 1.009999990E+00 2.044723224E-04 3.260558546E-01
 1.009999990E+00 2.117307595E-04 3.261693120E-01
 1.009999990E+00 2.191807289E-04 3.262931705E-01
 1.009999990E+00 2.268295357E-04 3.264290988E-01
 1.009999990E+00 2.346846741E-04 3.265776336E-01
 1.009999990E+00 2.427538711E-04 3.267390728E-01
 1.009999990E+00 2.510451304E-04 3.269139528E-01
 1.009999990E+00 2.595667029E-04 3.271035850E-01
 1.009999990E+00 2.683270432E-04 3.273086250E-01
 1.009999990E+00 2.773349406E-04 3.275289834E-01
 1.009999990E+00 2.865994466E-04 3.277670443E-01
 1.009999990E+00 2.961298742E-04 3.280217052E-01
 1.009999990E+00 3.059358860E-04 3.282954395E-01
 1.009999990E+00 3.160274064E-04 3.285882175E-01
 1.009999990E+00 3.264147381E-04 3.289015293E-01
 1.009999990E+00 3.371084458E-04 3.292352855E-01
 1.009999990E+00 3.481195308E-04 3.295913637E-01
 1.009999990E+00 3.594593145E-04 3.299705982E-01
 1.009999990E+00 3.711394675E-04 3.303740621E-01
 1.009999990E+00 3.831720969E-04 3.308027983E-01
 1.009999990E+00 3.955696302E-04 3.312575817E-01
 1.009999990E+00 4.083450476E-04 3.317398727E-01
 1.009999990E+00 4.215116205E-04 3.322504759E-01
 1.009999990E+00 4.350831150E-04 3.327910304E-01
 1.009999990E+00 4.490738502E-04 3.333617747E-01
 1.009999990E+00 4.634984653E-04 3.339640498E-01
 1.009999990E+00 4.783722106E-04 3.345999122E-01
 1.009999990E+00 4.937108024E-04 3.352701664E-01
 1.009999990E+00 5.095305387E-04 3.359748721E-01
 1.009999990E+00 5.258481833E-04 3.367168009E-01
 1.009999990E+00 5.426811404E-04 3.374969661E-01
 1.009999990E+00 5.600473960E-04 3.383159935E-01
 1.009999990E+00 5.779655767E-04 3.391749263E-01
 1.009999990E+00 5.964548327E-04 3.400749862E-01
 1.009999990E+00 6.155350711E-04 3.410181701E-01
 1.009999990E+00 6.352268392E-04 3.420048356E-01
 1.009999990E+00 6.555513828E-04 3.430357575E-01
 1.009999990E+00 6.765308208E-04 3.441139460E-01
 1.009999990E+00 6.981877377E-04 3.452383876E-01
 1.009999990E+00 7.205457659E-04 3.464109302E-01
 1.009999990E+00 7.436291780E-04 3.476333618E-01
 1.009999990E+00 7.674631779E-04 3.489053249E-01
 1.009999990E+00 7.920737844E-04 3.502293825E-01
 1.009999990E+00 8.174880059E-04 3.516047597E-01
 1.009999990E+00 8.437336073E-04 3.530332148E-01
 1.009999990E+00 8.708394598E-04 3.545161784E-01
 1.009999990E+00 8.988354239E-04 3.560530841E-01
 1.009999990E+00 9.277523495E-04 3.576452732E-01
 1.009999990E+00 9.576220764E-04 3.592927456E-01
 1.009999990E+00 9.884777246E-04 3.609974384E-01
 1.009999990E+00 1.020353404E-03 3.627581894E-01
 1.009999990E+00 1.053284504E-03 3.645753860E-01
 1.009999990E+00 1.087307581E-03 3.664504886E-01
 1.009999990E+00 1.122460468E-03 3.683835864E-01
 1.009999990E+00 1.158782397E-03 3.703748584E-01
 1.009999990E+00 1.196313766E-03 3.724231422E-01
 1.009999990E+00 1.235096599E-03 3.745297790E-01
 1.009999990E+00 1.275174203E-03 3.766946197E-01
 1.009999990E+00 1.316591515E-03 3.789160550E-01
 1.009999990E+00 1.359394984E-03 3.811953962E-01
 1.009999990E+00 1.403632574E-03 3.835318387E-01
 1.009999990E+00 1.449354109E-03 3.859250247E-01
 1.009999990E+00 1.496611047E-03 3.883745074E-01
 1.009999990E+00 1.545456587E-03 3.908801675E-01
 1.009999990E+00 1.595945912E-03 3.934413791E-01
 1.009999990E+00 1.648136065E-03 3.960572481E-01
 1.009999990E+00 1.702085836E-03 3.987282217E-01
 1.009999990E+00 1.757856458E-03 4.014528990E-01
 1.009999990E+00 1.815511147E-03 4.042316675E-01
 1.009999990E+00 1.875115326E-03 4.070636928E-01
 1.009999990E+00 1.936736517E-03 4.099486172E-01
 1.009999990E+00 2.000444802E-03 4.128863215E-01
 1.009999990E+00 2.066312591E-03 4.158770144E-01
 1.009999990E+00 2.134415088E-03 4.189201593E-01
 1.009999990E+00 2.204829827E-03 4.220158756E-01
 1.009999990E+00 2.277636901E-03 4.251647592E-01
 1.009999990E+00 2.352919895E-03 4.283667207E-01
 1.009999990E+00 2.430764493E-03 4.316223562E-01
 1.009999990E+00 2.511259634E-03 4.349325299E-01
 1.009999990E+00 2.594497753E-03 4.382976592E-01
 1.009999990E+00 2.680574078E-03 4.417191148E-01
 1.009999990E+00 2.769587096E-03 4.451975524E-01
 1.009999990E+00 2.861639485E-03 4.487342536E-01
 1.009999990E+00 2.956836252E-03 4.523300529E-01
 1.009999990E+00 3.055287292E-03 4.559873044E-01
 1.009999990E+00 3.157105530E-03 4.597076774E-01
 1.009999990E+00 3.262408311E-03 4.634918571E-01
 1.009999990E+00 3.371316940E-03 4.673432112E-01
 1.009999990E+00 3.483956680E-03 4.712639153E-01
 1.009999990E+00 3.600457450E-03 4.752554893E-01
 1.009999990E+00 3.720953828E-03 4.793211520E-01
 1.009999990E+00 3.845584812E-03 4.834632277E-01
 1.009999990E+00 3.974494524E-03 4.876846671E-01
 1.009999990E+00 4.107831512E-03 4.919880629E-01
 1.009999990E+00 4.245750606E-03 4.963766336E-01
 1.009999990E+00 4.388411064E-03 5.008541346E-01
 1.009999990E+00 4.535978194E-03 5.054238439E-01
 1.009999990E+00 4.688622896E-03 5.100892782E-01
 1.009999990E+00 4.846522119E-03 5.148532987E-01
 1.009999990E+00 5.009858869E-03 5.197204351E-01
 1.009999990E+00 5.178822670E-03 5.246945620E-01
 1.009999990E+00 5.353610031E-03 5.297806263E-01
 1.009999990E+00 5.534423050E-03 5.349833369E-01
 1.009999990E+00 5.721473135E-03 5.403075814E-01
 1.009999990E+00 5.914976355E-03 5.457587838E-01
 1.009999990E+00 6.115158554E-03 5.513426661E-01
 1.009999990E+00 6.322252564E-03 5.570654273E-01
 1.009999990E+00 6.536499131E-03 5.629333258E-01
 1.009999990E+00 6.758147385E-03 5.689518452E-01
 1.009999990E+00 6.987456232E-03 5.751285553E-01
 1.009999990E+00 7.224692032E-03 5.814704895E-01
 1.009999990E+00 7.470131386E-03 5.879862309E-01
 1.009999990E+00 7.724061143E-03 5.946838856E-01
 1.009999990E+00 7.986776531E-03 6.015728712E-01
 1.009999990E+00 8.258583955E-03 6.086634398E-01
 1.009999990E+00 8.539800532E-03 6.159686446E-01
 1.009999990E+00 8.830755018E-03 6.235188246E-01
 1.009999990E+00 9.131785482E-03 6.313606501E-01
 1.009999990E+00 9.443244897E-03 6.395252347E-01
 1.009999990E+00 9.765495546E-03 6.480062604E-01
 1.009999990E+00 1.009891182E-02 6.567828059E-01
 1.009999990E+00 1.044388302E-02 6.658450961E-01
 1.009999990E+00 1.080081146E-02 6.752026677E-01
 1.009999990E+00 1.117011346E-02 6.848806739E-01
 1.009999990E+00 1.155222021E-02 6.949114203E-01
 1.009999990E+00 1.194757689E-02 7.053292394E-01
 1.009999990E+00 1.235664450E-02 7.161666155E-01
 1.009999990E+00 1.277989987E-02 7.274488211E-01
 1.009999990E+00 1.321783569E-02 7.391790152E-01
 1.009999990E+00 1.367096324E-02 7.513156533E-01
 1.009999990E+00 1.413981058E-02 7.637494802E-01
 1.009999990E+00 1.462492254E-02 7.762925029E-01
 1.009999990E+00 1.512686349E-02 7.887414694E-01
 1.009999990E+00 1.564621925E-02 8.009880781E-01
 1.009999990E+00 1.618359052E-02 8.130374551E-01
 1.009999990E+00 1.673959941E-02 8.249848485E-01
 1.009999990E+00 1.731489226E-02 8.369338512E-01
 1.009999990E+00 1.791014336E-02 8.489374518E-01
 1.009999990E+00 1.852604933E-02 8.609952331E-01
 1.009999990E+00 1.916333288E-02 8.730614781E-01
 1.009999990E+00 1.982275024E-02 8.849996328E-01
 1.009999990E+00 2.050508372E-02 8.965103626E-01
 1.009999990E+00 2.121114731E-02 9.071348310E-01
 1.009999990E+00 2.194179967E-02 9.161920547E-01
 1.009999990E+00 2.269793302E-02 9.230765104E-01
 1.009999990E+00 2.348048054E-02 9.275801182E-01
 1.009999990E+00 2.429040708E-02 9.300800562E-01
 1.009999990E+00 2.512871847E-02 9.314072728E-01
 1.009999990E+00 2.599645779E-02 9.322888851E-01
 1.009999990E+00 2.689467557E-02 9.331125021E-01
 1.009999990E+00 2.782447077E-02 9.339682460E-01
 1.009999990E+00 2.878697403E-02 9.348438978E-01
 1.009999990E+00 2.978334390E-02 9.357264042E-01
 1.009999990E+00 3.081477992E-02 9.366153479E-01
 1.009999990E+00 3.188249841E-02 9.375137687E-01
 1.009999990E+00 3.298775852E-02 9.384219646E-01
 1.009999990E+00 3.413188085E-02 9.393409491E-01
 1.009999990E+00 3.531622514E-02 9.402697086E-01
 1.009999990E+00 3.654219210E-02 9.412089586E-01
 1.009999990E+00 3.781123832E-02 9.421578646E-01
 1.009999990E+00 3.912485763E-02 9.431169629E-01
 1.009999990E+00 4.048459977E-02 9.440855980E-01
 1.009999990E+00 4.189208150E-02 9.450641274E-01
 1.009999990E+00 4.334897920E-02 9.460520744E-01
 1.009999990E+00 4.485701397E-02 9.470496178E-01
 1.009999990E+00 4.641798139E-02 9.480565190E-01
 1.009999990E+00 4.803373292E-02 9.490724802E-01
 1.009999990E+00 4.970618710E-02 9.500977397E-01
 1.009999990E+00 5.143732578E-02 9.511318803E-01
 1.009999990E+00 5.322920904E-02 9.521749616E-01
 1.009999990E+00 5.508396775E-02 9.532265663E-01
 1.009999990E+00 5.700381100E-02 9.542868137E-01
 1.009999990E+00 5.899102241E-02 9.553554654E-01
 1.009999990E+00 6.104796752E-02 9.564322233E-01
 1.009999990E+00 6.317709386E-02 9.575170875E-01