TITLE     = "Centerline velocity u/a_inf versus x"
VARIABLES = "x","u"
ZONE T="USM3D, Grid 3"
 -1.268293023E+00 3.900000095E+00
 -9.512194991E-01 3.900013924E+00
 -6.341462731E-01 3.900034904E+00
 -3.170731962E-01 3.899843931E+00
 2.775557892E-17 3.899863958E+00
 3.170731962E-01 3.901021957E+00
 6.341462731E-01 3.902251959E+00
 9.512194991E-01 3.899420977E+00
 1.268293023E+00 3.889302969E+00
 1.585366011E+00 3.874475956E+00
 1.902438998E+00 3.861792088E+00
 2.219511986E+00 3.856218100E+00
 2.536585093E+00 3.857778072E+00
 2.853658915E+00 3.863291979E+00
 3.170732021E+00 3.869333982E+00
 3.487804890E+00 3.873728991E+00
 3.804877996E+00 3.875343084E+00
 4.121951103E+00 3.873404980E+00
 4.439023972E+00 3.867533922E+00
 4.756097794E+00 3.858493090E+00
 5.073171139E+00 3.848548889E+00
 5.390244007E+00 3.840615988E+00
 5.707316875E+00 3.836746931E+00
 6.024390221E+00 3.837244034E+00
 6.341463089E+00 3.840802908E+00
 6.658536911E+00 3.845279932E+00
 6.975609779E+00 3.848469019E+00
 7.292683125E+00 3.848679066E+00
 7.609755993E+00 3.845190048E+00
 7.926828861E+00 3.838567972E+00
 8.243902206E+00 3.830574989E+00
 8.560976028E+00 3.823497057E+00
 8.878048897E+00 3.819150925E+00
 9.195121765E+00 3.818170071E+00
 9.512194633E+00 3.819900036E+00
 9.829268456E+00 3.822782993E+00
 1.014634037E+01 3.824965000E+00
 1.046341038E+01 3.824918985E+00
 1.078048992E+01 3.821975946E+00
 1.109755993E+01 3.816627979E+00
 1.141462994E+01 3.810344934E+00
 1.173171043E+01 3.804925919E+00
 1.204878044E+01 3.801681995E+00
 1.236585045E+01 3.800925016E+00
 1.268292999E+01 3.801954985E+00
 1.300000000E+01 3.803437948E+00
 1.331707001E+01 3.803955078E+00
 1.363414955E+01 3.802552938E+00
 1.395121956E+01 3.799117088E+00
 1.426828957E+01 3.794420958E+00
 1.458537006E+01 3.789751053E+00
 1.490244007E+01 3.786289930E+00
 1.521951008E+01 3.784583092E+00
 1.553658962E+01 3.784363985E+00
 1.585365963E+01 3.784745932E+00
 1.617073059E+01 3.784661055E+00
 1.648780060E+01 3.783329964E+00
 1.680488014E+01 3.780591011E+00
 1.712195015E+01 3.776948929E+00
 1.743902016E+01 3.773293018E+00
 1.775609970E+01 3.770440102E+00
 1.807316971E+01 3.768745899E+00
 1.839023972E+01 3.767981052E+00
 1.870731926E+01 3.767503023E+00
 1.902438927E+01 3.766597986E+00
 1.934145927E+01 3.764831066E+00
 1.965854073E+01 3.762236118E+00
 1.997561073E+01 3.759258986E+00
 2.029268074E+01 3.756491899E+00
 2.060976028E+01 3.754354000E+00
 2.092683029E+01 3.752895117E+00
 2.124390030E+01 3.751813889E+00
 2.156097984E+01 3.750655890E+00
 2.187804985E+01 3.749068975E+00
 2.219511986E+01 3.746970892E+00
 2.251219940E+01 3.744570971E+00
 2.282926941E+01 3.742213011E+00
 2.314633942E+01 3.740175009E+00
 2.346340942E+01 3.738527060E+00
 2.378049088E+01 3.737114906E+00
 2.409756088E+01 3.735682964E+00
 2.441463089E+01 3.734021902E+00
 2.473171043E+01 3.732084990E+00
 2.504878044E+01 3.729980946E+00
 2.536585045E+01 3.727894068E+00
 2.568292999E+01 3.725953102E+00
 2.600000000E+01 3.724164009E+00
 2.631707001E+01 3.722417116E+00
 2.663414955E+01 3.720561981E+00
 2.695121956E+01 3.718492985E+00
 2.726828957E+01 3.716200113E+00
 2.758536911E+01 3.713742018E+00
 2.790243912E+01 3.711189985E+00
 2.821950912E+01 3.708564997E+00
 2.853659058E+01 3.705817938E+00
 2.885366058E+01 3.702861071E+00
 2.917073059E+01 3.699610949E+00
 2.948780060E+01 3.696031094E+00
 2.980488014E+01 3.692130089E+00
 3.012195015E+01 3.687937021E+00
 3.043902016E+01 3.683461905E+00
 3.075609970E+01 3.678684950E+00
 3.107316971E+01 3.673563004E+00
 3.139023972E+01 3.668059111E+00
 3.170731926E+01 3.662161112E+00
 3.202439117E+01 3.655879021E+00
 3.234146118E+01 3.649234056E+00
 3.265853882E+01 3.642244101E+00
 3.297560883E+01 3.634910107E+00
 3.329267883E+01 3.627228975E+00
 3.360976028E+01 3.619201899E+00
 3.392683029E+01 3.610838890E+00
 3.424390030E+01 3.602159977E+00
 3.456098175E+01 3.593189955E+00
 3.487805176E+01 3.583944082E+00
 3.519512177E+01 3.574436903E+00
 3.551219940E+01 3.564677954E+00
 3.582926941E+01 3.554680109E+00
 3.614633942E+01 3.544460058E+00
 3.646340942E+01 3.534034967E+00
 3.678049088E+01 3.523422003E+00
 3.709756088E+01 3.512634039E+00
 3.741463089E+01 3.501682043E+00
 3.773170853E+01 3.490577936E+00
 3.804877853E+01 3.479334116E+00
 3.836584854E+01 3.467961073E+00
 3.868292999E+01 3.456470966E+00
 3.900000000E+01 3.444874048E+00
 3.931707001E+01 3.433177948E+00
 3.963415146E+01 3.421391964E+00
 3.995122147E+01 3.409523964E+00
 4.026829147E+01 3.397579908E+00
 4.058536911E+01 3.385569096E+00
 4.090243912E+01 3.373497009E+00
 4.121950912E+01 3.361368895E+00
 4.153659058E+01 3.349190950E+00
 4.185366058E+01 3.336966991E+00
 4.217073059E+01 3.324702024E+00
 4.248780060E+01 3.312400103E+00
 4.280487823E+01 3.300065041E+00
 4.312194824E+01 3.287699938E+00
 4.343901825E+01 3.275306940E+00
 4.375609970E+01 3.262890100E+00
 4.407316971E+01 3.250451088E+00
 4.439023972E+01 3.237989902E+00
 4.470732117E+01 3.225509882E+00
 4.502439117E+01 3.213012934E+00
 4.534146118E+01 3.200499058E+00
 4.565853882E+01 3.187968016E+00
 4.597560883E+01 3.175421953E+00
 4.629267883E+01 3.162859917E+00
 4.660976028E+01 3.150283098E+00
 4.692683029E+01 3.137689114E+00
 4.724390030E+01 3.125080109E+00
 4.756098175E+01 3.112452030E+00
 4.787805176E+01 3.099807024E+00
 4.819512177E+01 3.087141991E+00
 4.851219940E+01 3.074455976E+00
 4.882926941E+01 3.061747074E+00
 4.914633942E+01 3.049012899E+00
 4.946340942E+01 3.036252022E+00
 4.978049088E+01 3.023463011E+00
 5.009756088E+01 3.010639906E+00
 5.041463089E+01 2.997786045E+00
 5.073170853E+01 2.984879017E+00
 5.104877853E+01 2.972006083E+00
 5.136584854E+01 2.958734035E+00
 5.168292999E+01 2.947150946E+00
 5.200000000E+01 2.922641993E+00
ZONE T="USM3D, Grid 2"
 -1.268293023E+00 3.900000095E+00
 -1.109755993E+00 3.900000095E+00
 -9.512194991E-01 3.900000095E+00
 -7.926828861E-01 3.900000095E+00
 -6.341462731E-01 3.900000095E+00
 -4.756098092E-01 3.900001049E+00
 -3.170731962E-01 3.899998903E+00
 -1.585365981E-01 3.899996042E+00
 2.775557892E-17 3.900010109E+00
 1.585365981E-01 3.900027037E+00
 3.170731962E-01 3.899966002E+00
 4.756098092E-01 3.899806976E+00
 6.341462731E-01 3.899836063E+00
 7.926828861E-01 3.900564909E+00
 9.512194991E-01 3.901974916E+00
 1.109755993E+00 3.902585983E+00
 1.268293023E+00 3.899530888E+00
 1.426828980E+00 3.890436888E+00
 1.585366011E+00 3.876092911E+00
 1.743901968E+00 3.860924959E+00
 1.902438998E+00 3.850138903E+00
 2.060976028E+00 3.846410036E+00
 2.219511986E+00 3.849014997E+00
 2.378048897E+00 3.855178118E+00
 2.536585093E+00 3.861936092E+00
 2.695122004E+00 3.867325068E+00
 2.853658915E+00 3.870660067E+00
 3.012195110E+00 3.872188091E+00
 3.170732021E+00 3.872548103E+00
 3.329267979E+00 3.872360945E+00
 3.487804890E+00 3.872070074E+00
 3.646341085E+00 3.871959925E+00
 3.804877996E+00 3.872220993E+00
 3.963414907E+00 3.872936010E+00
 4.121951103E+00 3.873965979E+00
 4.280488014E+00 3.874790907E+00
 4.439023972E+00 3.874427080E+00
 4.597560883E+00 3.871639013E+00
 4.756097794E+00 3.865518093E+00
 4.914634228E+00 3.856244087E+00
 5.073171139E+00 3.845444918E+00
 5.231707096E+00 3.835655928E+00
 5.390244007E+00 3.829145908E+00
 5.548779964E+00 3.826956034E+00
 5.707316875E+00 3.828701973E+00
 5.865853786E+00 3.833033085E+00
 6.024390221E+00 3.838309050E+00
 6.182927132E+00 3.843153954E+00
 6.341463089E+00 3.846748114E+00
 6.500000000E+00 3.848879099E+00
 6.658536911E+00 3.849809885E+00
 6.817072868E+00 3.850055933E+00
 6.975609779E+00 3.850135088E+00
 7.134146214E+00 3.850358963E+00
 7.292683125E+00 3.850713968E+00
 7.451220036E+00 3.850826025E+00
 7.609755993E+00 3.850048065E+00
 7.768292904E+00 3.847651005E+00
 7.926828861E+00 3.843127966E+00
 8.085366249E+00 3.836523056E+00
 8.243902206E+00 3.828608036E+00
 8.402439117E+00 3.820725918E+00
 8.560976028E+00 3.814332962E+00
 8.719511986E+00 3.810480118E+00
 8.878048897E+00 3.809510946E+00
 9.036584854E+00 3.811080933E+00
 9.195121765E+00 3.814399958E+00
 9.353658676E+00 3.818531990E+00
 9.512194633E+00 3.822645903E+00
 9.670731544E+00 3.826155901E+00
 9.829268456E+00 3.828767061E+00
 9.987805367E+00 3.830436945E+00
 1.014634037E+01 3.831279039E+00
 1.030488014E+01 3.831422091E+00
 1.046341038E+01 3.830884933E+00
 1.062195015E+01 3.829510927E+00
 1.078048992E+01 3.827008963E+00
 1.093902016E+01 3.823110104E+00
 1.109755993E+01 3.817789078E+00
 1.125609970E+01 3.811436892E+00
 1.141462994E+01 3.804862976E+00
 1.157316971E+01 3.799077988E+00
 1.173171043E+01 3.794966936E+00
 1.189023972E+01 3.793015003E+00
 1.204878044E+01 3.793220997E+00
 1.220732021E+01 3.795176029E+00
 1.236585045E+01 3.798259020E+00
 1.252439022E+01 3.801817894E+00
 1.268292999E+01 3.805305004E+00
 1.284146023E+01 3.808331966E+00
 1.300000000E+01 3.810652018E+00
 1.315853977E+01 3.812110901E+00
 1.331707001E+01 3.812575102E+00
 1.347560978E+01 3.811882019E+00
 1.363414955E+01 3.809863091E+00
 1.379267979E+01 3.806413889E+00
 1.395121956E+01 3.801620960E+00
 1.410976028E+01 3.795862913E+00
 1.426828957E+01 3.789809942E+00
 1.442683029E+01 3.784280062E+00
 1.458537006E+01 3.780025959E+00
 1.474390030E+01 3.777525902E+00
 1.490244007E+01 3.776897907E+00
 1.506097984E+01 3.777930021E+00
 1.521951008E+01 3.780195951E+00
 1.537804985E+01 3.783189058E+00
 1.553658962E+01 3.786417007E+00
 1.569511986E+01 3.789453030E+00
 1.585365963E+01 3.791940928E+00
 1.601219940E+01 3.793576956E+00
 1.617073059E+01 3.794094086E+00
 1.632926941E+01 3.793272018E+00
 1.648780060E+01 3.790978909E+00
 1.664633942E+01 3.787249088E+00
 1.680488014E+01 3.782355070E+00
 1.696340942E+01 3.776823997E+00
 1.712195015E+01 3.771362066E+00
 1.728049088E+01 3.766700029E+00
 1.743902016E+01 3.763415098E+00
 1.759756088E+01 3.761806011E+00
 1.775609970E+01 3.761864901E+00
 1.791463089E+01 3.763326883E+00
 1.807316971E+01 3.765769005E+00
 1.823171043E+01 3.768702030E+00
 1.839023972E+01 3.771642923E+00
 1.854878044E+01 3.774147034E+00
 1.870731926E+01 3.775830984E+00
 1.886585045E+01 3.776377916E+00
 1.902438927E+01 3.775568008E+00
 1.918292999E+01 3.773319960E+00
 1.934145927E+01 3.769740105E+00
 1.950000000E+01 3.765161037E+00
 1.965854073E+01 3.760118961E+00
 1.981707001E+01 3.755273104E+00
 1.997561073E+01 3.751265049E+00
 2.013414955E+01 3.748574972E+00
 2.029268074E+01 3.747432947E+00
 2.045121956E+01 3.747791052E+00
 2.060976028E+01 3.749372959E+00
 2.076828957E+01 3.751749039E+00
 2.092683029E+01 3.754417896E+00
 2.108536911E+01 3.756880045E+00
 2.124390030E+01 3.758682013E+00
 2.140243912E+01 3.759455919E+00
 2.156097984E+01 3.758955956E+00
 2.171950912E+01 3.757091999E+00
 2.187804985E+01 3.753971100E+00
 2.203659058E+01 3.749910116E+00
 2.219511986E+01 3.745409012E+00
 2.235366058E+01 3.741070986E+00
 2.251219940E+01 3.737479925E+00
 2.267073059E+01 3.735074043E+00
 2.282926941E+01 3.734060049E+00
 2.298780060E+01 3.734391928E+00
 2.314633942E+01 3.735800028E+00
 2.330488014E+01 3.737860918E+00
 2.346340942E+01 3.740082979E+00
 2.362195015E+01 3.741976976E+00
 2.378049088E+01 3.743117094E+00
 2.393902016E+01 3.743185997E+00
 2.409756088E+01 3.742022991E+00
 2.425609970E+01 3.739656925E+00
 2.441463089E+01 3.736320972E+00
 2.457316971E+01 3.732430935E+00
 2.473171043E+01 3.728523970E+00
 2.489023972E+01 3.725142956E+00
 2.504878044E+01 3.722727060E+00
 2.520731926E+01 3.721513987E+00
 2.536585045E+01 3.721503019E+00
 2.552438927E+01 3.722475052E+00
 2.568292999E+01 3.724052906E+00
 2.584145927E+01 3.725780010E+00
 2.600000000E+01 3.727195978E+00
 2.615854073E+01 3.727906942E+00
 2.631707001E+01 3.727643013E+00
 2.647561073E+01 3.726296902E+00
 2.663414955E+01 3.723949909E+00
 2.679268074E+01 3.720874071E+00
 2.695121956E+01 3.717484951E+00
 2.710976028E+01 3.714267969E+00
 2.726828957E+01 3.711668968E+00
 2.742683029E+01 3.709995985E+00
 2.758536911E+01 3.709359884E+00
 2.774390030E+01 3.709657907E+00
 2.790243912E+01 3.710607052E+00
 2.806097984E+01 3.711812973E+00
 2.821950912E+01 3.712852001E+00
 2.837804985E+01 3.713344097E+00
 2.853659058E+01 3.713013887E+00
 2.869511986E+01 3.711739063E+00
 2.885366058E+01 3.709572077E+00
 2.901219940E+01 3.706732988E+00
 2.917073059E+01 3.703578949E+00
 2.932926941E+01 3.700524092E+00
 2.948780060E+01 3.697942972E+00
 2.964633942E+01 3.696089029E+00
 2.980488014E+01 3.695029020E+00
 2.996340942E+01 3.694638014E+00
 3.012195015E+01 3.694634914E+00
 3.028049088E+01 3.694657087E+00
 3.043902016E+01 3.694329977E+00
 3.059756088E+01 3.693340063E+00
 3.075609970E+01 3.691495895E+00
 3.091463089E+01 3.688760996E+00
 3.107316971E+01 3.685266972E+00
 3.123171043E+01 3.681288004E+00
 3.139023972E+01 3.677181959E+00
 3.154878044E+01 3.673302889E+00
 3.170731926E+01 3.669914007E+00
 3.186585045E+01 3.667121887E+00
 3.202439117E+01 3.664863110E+00
 3.218292999E+01 3.662925005E+00
 3.234146118E+01 3.661006927E+00
 3.250000000E+01 3.658787966E+00
 3.265853882E+01 3.655999899E+00
 3.281707001E+01 3.652483940E+00
 3.297560883E+01 3.648228884E+00
 3.313415146E+01 3.643368959E+00
 3.329267883E+01 3.638160944E+00
 3.345122147E+01 3.632917881E+00
 3.360976028E+01 3.627927065E+00
 3.376829147E+01 3.623382092E+00
 3.392683029E+01 3.619328976E+00
 3.408536911E+01 3.615669966E+00
 3.424390030E+01 3.612190962E+00
 3.440243912E+01 3.608623028E+00
 3.456098175E+01 3.604711056E+00
 3.471950912E+01 3.600275993E+00
 3.487805176E+01 3.595256090E+00
 3.503659058E+01 3.589720964E+00
 3.519512177E+01 3.583857059E+00
 3.535366058E+01 3.577912092E+00
 3.551219940E+01 3.572133064E+00
 3.567073059E+01 3.566694975E+00
 3.582926941E+01 3.561657906E+00
 3.598780060E+01 3.556952953E+00
 3.614633942E+01 3.552416086E+00
 3.630487823E+01 3.547827005E+00
 3.646340942E+01 3.542979956E+00
 3.662194824E+01 3.537734032E+00
 3.678049088E+01 3.532048941E+00
 3.693901825E+01 3.525995016E+00
 3.709756088E+01 3.519731045E+00
 3.725609970E+01 3.513459921E+00
 3.741463089E+01 3.507363081E+00
 3.757316971E+01 3.501554012E+00
 3.773170853E+01 3.496045113E+00
 3.789023972E+01 3.490751982E+00
 3.804877853E+01 3.485522985E+00
 3.820732117E+01 3.480185032E+00
 3.836584854E+01 3.474597931E+00
 3.852439117E+01 3.468693972E+00
 3.868292999E+01 3.462491035E+00
 3.884146118E+01 3.456091881E+00
 3.900000000E+01 3.449641943E+00
 3.915853882E+01 3.443289042E+00
 3.931707001E+01 3.437135935E+00
 3.947560883E+01 3.431209087E+00
 3.963415146E+01 3.425455093E+00
 3.979267883E+01 3.419765949E+00
 3.995122147E+01 3.414010048E+00
 4.010976028E+01 3.408082962E+00
 4.026829147E+01 3.401931047E+00
 4.042683029E+01 3.395571947E+00
 4.058536911E+01 3.389084101E+00
 4.074390030E+01 3.382576942E+00
 4.090243912E+01 3.376156092E+00
 4.106098175E+01 3.369884968E+00
 4.121950912E+01 3.363770008E+00
 4.137805176E+01 3.357758999E+00
 4.153659058E+01 3.351763964E+00
 4.169512177E+01 3.345695972E+00
 4.185366058E+01 3.339488983E+00
 4.201219940E+01 3.333129883E+00
 4.217073059E+01 3.326653004E+00
 4.232926941E+01 3.320128918E+00
 4.248780060E+01 3.313637018E+00
 4.264633942E+01 3.307235956E+00
 4.280487823E+01 3.300944090E+00
 4.296340942E+01 3.294737101E+00
 4.312194824E+01 3.288558960E+00
 4.328049088E+01 3.282345057E+00
 4.343901825E+01 3.276045084E+00
 4.359756088E+01 3.269644022E+00
 4.375609970E+01 3.263164043E+00
 4.391463089E+01 3.256650925E+00
 4.407316971E+01 3.250158072E+00
 4.423170853E+01 3.243726969E+00
 4.439023972E+01 3.237366915E+00
 4.454877853E+01 3.231059074E+00
 4.470732117E+01 3.224762917E+00
 4.486584854E+01 3.218436956E+00
 4.502439117E+01 3.212052107E+00
 4.518292999E+01 3.205604076E+00
 4.534146118E+01 3.199115038E+00
 4.550000000E+01 3.192616940E+00
 4.565853882E+01 3.186145067E+00
 4.581707001E+01 3.179714918E+00
 4.597560883E+01 3.173326015E+00
 4.613415146E+01 3.166956902E+00
 4.629267883E+01 3.160578966E+00
 4.645122147E+01 3.154170036E+00
 4.660976028E+01 3.147721052E+00
 4.676829147E+01 3.141239882E+00
 4.692683029E+01 3.134747982E+00
 4.708536911E+01 3.128266096E+00
 4.724390030E+01 3.121808052E+00
 4.740243912E+01 3.115372896E+00
 4.756098175E+01 3.108949900E+00
 4.771950912E+01 3.102520943E+00
 4.787805176E+01 3.096071959E+00
 4.803659058E+01 3.089596987E+00
 4.819512177E+01 3.083102942E+00
 4.835366058E+01 3.076601028E+00
 4.851219940E+01 3.070105076E+00
 4.867073059E+01 3.063620090E+00
 4.882926941E+01 3.057143927E+00
 4.898780060E+01 3.050668955E+00
 4.914633942E+01 3.044184923E+00
 4.930487823E+01 3.037683964E+00
 4.946340942E+01 3.031167030E+00
 4.962194824E+01 3.024636984E+00
 4.978049088E+01 3.018101931E+00
 4.993901825E+01 3.011569023E+00
 5.009756088E+01 3.005037069E+00
 5.025609970E+01 2.998502016E+00
 5.041463089E+01 2.991960049E+00
 5.057316971E+01 2.985403061E+00
 5.073170853E+01 2.978832006E+00
 5.089023972E+01 2.972248077E+00
 5.104877853E+01 2.965653896E+00
 5.120732117E+01 2.959054947E+00
 5.136584854E+01 2.952446938E+00
 5.152439117E+01 2.945837975E+00
 5.168292999E+01 2.939188957E+00
 5.184146118E+01 2.932703972E+00
 5.200000000E+01 2.923629045E+00
ZONE T="USM3D, Grid 1"
 -1.268293023E+00 3.900000095E+00
 -1.189023972E+00 3.900000095E+00
 -1.109755993E+00 3.900000095E+00
 -1.030488014E+00 3.900000095E+00
 -9.512194991E-01 3.900000095E+00
 -8.719512224E-01 3.900000095E+00
 -7.926828861E-01 3.900000095E+00
 -7.134146094E-01 3.900000095E+00
 -6.341462731E-01 3.900000095E+00
 -5.548779964E-01 3.900000095E+00
 -4.756098092E-01 3.900000095E+00
 -3.963415027E-01 3.900000095E+00
 -3.170731962E-01 3.900000095E+00
 -2.378049046E-01 3.900000095E+00
 -1.585365981E-01 3.900000095E+00
 -7.926829159E-02 3.900000095E+00
 2.775557892E-17 3.900000095E+00
 7.926829159E-02 3.900000095E+00
 1.585365981E-01 3.900000095E+00
 2.378049046E-01 3.900000095E+00
 3.170731962E-01 3.900000095E+00
 3.963415027E-01 3.900000095E+00
 4.756098092E-01 3.899997950E+00
 5.548779964E-01 3.899997950E+00
 6.341462731E-01 3.900006056E+00
 7.134146094E-01 3.900022030E+00
 7.926828861E-01 3.900021076E+00
 8.719512224E-01 3.899955988E+00
 9.512194991E-01 3.899816036E+00
 1.030488014E+00 3.899724960E+00
 1.109755993E+00 3.899976969E+00
 1.189023972E+00 3.900865078E+00
 1.268293023E+00 3.902280092E+00
 1.347561002E+00 3.903281927E+00
 1.426828980E+00 3.901978016E+00
 1.506098032E+00 3.896122932E+00
 1.585366011E+00 3.884562016E+00
 1.664633989E+00 3.868735075E+00
 1.743901968E+00 3.852622986E+00
 1.823171020E+00 3.840692043E+00
 1.902438998E+00 3.835549116E+00
 1.981706977E+00 3.837068081E+00
 2.060976028E+00 3.843101025E+00
 2.140244007E+00 3.850809097E+00
 2.219511986E+00 3.857803106E+00
 2.298779964E+00 3.862750053E+00
 2.378048897E+00 3.865453005E+00
 2.457317114E+00 3.866520882E+00
 2.536585093E+00 3.866849899E+00
 2.615854025E+00 3.867171049E+00
 2.695122004E+00 3.867810965E+00
 2.774389982E+00 3.868721962E+00
 2.853658915E+00 3.869659901E+00
 2.932926893E+00 3.870378017E+00
 3.012195110E+00 3.870759010E+00
 3.091463089E+00 3.870836020E+00
 3.170732021E+00 3.870742083E+00
 3.250000000E+00 3.870626926E+00
 3.329267979E+00 3.870596886E+00
 3.408536911E+00 3.870690107E+00
 3.487804890E+00 3.870886087E+00
 3.567073107E+00 3.871139050E+00
 3.646341085E+00 3.871403933E+00
 3.725610018E+00 3.871651888E+00
 3.804877996E+00 3.871870041E+00
 3.884145975E+00 3.872057915E+00
 3.963414907E+00 3.872211933E+00
 4.042683125E+00 3.872322083E+00
 4.121951103E+00 3.872375011E+00
 4.201220036E+00 3.872376919E+00
 4.280488014E+00 3.872376919E+00
 4.359755993E+00 3.872478962E+00
 4.439023972E+00 3.872828960E+00
 4.518292904E+00 3.873529911E+00
 4.597560883E+00 3.874505997E+00
 4.676828861E+00 3.875344992E+00
 4.756097794E+00 3.875202894E+00
 4.835365772E+00 3.872895002E+00
 4.914634228E+00 3.867285013E+00
 4.993902206E+00 3.857954979E+00
 5.073171139E+00 3.845809937E+00
 5.152439117E+00 3.833066940E+00
 5.231707096E+00 3.822424889E+00
 5.310976028E+00 3.815932035E+00
 5.390244007E+00 3.814289093E+00
 5.469511986E+00 3.816890955E+00
 5.548779964E+00 3.822326899E+00
 5.628048897E+00 3.828985929E+00
 5.707316875E+00 3.835479021E+00
 5.786584854E+00 3.840862036E+00
 5.865853786E+00 3.844671965E+00
 5.945121765E+00 3.846868992E+00
 6.024390221E+00 3.847719908E+00
 6.103659153E+00 3.847655058E+00
 6.182927132E+00 3.847124100E+00
 6.262195110E+00 3.846494913E+00
 6.341463089E+00 3.845997095E+00
 6.420732021E+00 3.845725060E+00
 6.500000000E+00 3.845679045E+00
 6.579267979E+00 3.845820904E+00
 6.658536911E+00 3.846110106E+00
 6.737804890E+00 3.846523046E+00
 6.817072868E+00 3.847053051E+00
 6.896340847E+00 3.847690105E+00
 6.975609779E+00 3.848402023E+00
 7.054878235E+00 3.849126101E+00
 7.134146214E+00 3.849773884E+00
 7.213415146E+00 3.850250006E+00
 7.292683125E+00 3.850478888E+00
 7.371951103E+00 3.850436926E+00
 7.451220036E+00 3.850164890E+00
 7.530488014E+00 3.849771976E+00
 7.609755993E+00 3.849400997E+00
 7.689023972E+00 3.849165916E+00
 7.768292904E+00 3.849072933E+00
 7.847560883E+00 3.848938942E+00
 7.926828861E+00 3.848361015E+00
 8.006097794E+00 3.846759081E+00
 8.085366249E+00 3.843539000E+00
 8.164633751E+00 3.838340998E+00
 8.243902206E+00 3.831302881E+00
 8.323170662E+00 3.823174000E+00
 8.402439117E+00 3.815155029E+00
 8.481706619E+00 3.808511019E+00
 8.560976028E+00 3.804152966E+00
 8.640243530E+00 3.802405119E+00
 8.719511986E+00 3.803020954E+00
 8.798780441E+00 3.805382967E+00
 8.878048897E+00 3.808747053E+00
 8.957317352E+00 3.812437057E+00
 9.036584854E+00 3.815954924E+00
 9.115854263E+00 3.819004059E+00
 9.195121765E+00 3.821465015E+00
 9.274390221E+00 3.823343992E+00
 9.353658676E+00 3.824717999E+00
 9.432927132E+00 3.825692892E+00
 9.512194633E+00 3.826373100E+00
 9.591463089E+00 3.826847076E+00
 9.670731544E+00 3.827189922E+00
 9.750000000E+00 3.827460051E+00
 9.829268456E+00 3.827703953E+00
 9.908536911E+00 3.827951908E+00
 9.987805367E+00 3.828217983E+00
 1.006707001E+01 3.828496933E+00
 1.014634037E+01 3.828763008E+00
 1.022560978E+01 3.828977108E+00
 1.030488014E+01 3.829099894E+00
 1.038414955E+01 3.829106092E+00
 1.046341038E+01 3.828995943E+00
 1.054267979E+01 3.828799963E+00
 1.062195015E+01 3.828562021E+00
 1.070121956E+01 3.828321934E+00
 1.078048992E+01 3.828072071E+00
 1.085976028E+01 3.827713966E+00
 1.093902016E+01 3.827039003E+00
 1.101828957E+01 3.825731039E+00
 1.109755993E+01 3.823426962E+00
 1.117683029E+01 3.819833994E+00
 1.125609970E+01 3.814879894E+00
 1.133537006E+01 3.808829069E+00
 1.141462994E+01 3.802300930E+00
 1.149390030E+01 3.796138048E+00
 1.157316971E+01 3.791168928E+00
 1.165244007E+01 3.787976027E+00
 1.173171043E+01 3.786762953E+00
 1.181097984E+01 3.787365913E+00
 1.189023972E+01 3.789361954E+00
 1.196951008E+01 3.792216063E+00
 1.204878044E+01 3.795407057E+00
 1.212804985E+01 3.798504114E+00
 1.220732021E+01 3.801207066E+00
 1.228658962E+01 3.803344965E+00
 1.236585045E+01 3.804866076E+00
 1.244511986E+01 3.805814028E+00
 1.252439022E+01 3.806303978E+00
 1.260365963E+01 3.806499004E+00
 1.268292999E+01 3.806577921E+00
 1.276220036E+01 3.806704998E+00
 1.284146023E+01 3.807007074E+00
 1.292072964E+01 3.807548046E+00
 1.300000000E+01 3.808327913E+00
 1.307927036E+01 3.809287071E+00
 1.315853977E+01 3.810317993E+00
 1.323779964E+01 3.811291933E+00
 1.331707001E+01 3.812078953E+00
 1.339634037E+01 3.812570095E+00
 1.347560978E+01 3.812685966E+00
 1.355488014E+01 3.812386990E+00
 1.363414955E+01 3.811652899E+00
 1.371341038E+01 3.810473919E+00
 1.379267979E+01 3.808823109E+00
 1.387195015E+01 3.806644917E+00
 1.395121956E+01 3.803869009E+00
 1.403048992E+01 3.800441980E+00
 1.410976028E+01 3.796385050E+00
 1.418902016E+01 3.791850090E+00
 1.426828957E+01 3.787137032E+00
 1.434755993E+01 3.782654047E+00
 1.442683029E+01 3.778837919E+00
 1.450609970E+01 3.776038885E+00
 1.458537006E+01 3.774445057E+00
 1.466462994E+01 3.774049997E+00
 1.474390030E+01 3.774677038E+00
 1.482316971E+01 3.776043892E+00
 1.490244007E+01 3.777832031E+00
 1.498171043E+01 3.779750109E+00
 1.506097984E+01 3.781574011E+00
 1.514023972E+01 3.783160925E+00
 1.521951008E+01 3.784456015E+00
 1.529878044E+01 3.785473108E+00
 1.537804985E+01 3.786277056E+00
 1.545732021E+01 3.786962986E+00
 1.553658962E+01 3.787632942E+00
 1.561585045E+01 3.788372040E+00
 1.569511986E+01 3.789237022E+00
 1.577439022E+01 3.790242910E+00
 1.585365963E+01 3.791361094E+00
 1.593292999E+01 3.792525053E+00
 1.601219940E+01 3.793634892E+00
 1.609145927E+01 3.794580936E+00
 1.617073059E+01 3.795245886E+00
 1.625000000E+01 3.795526981E+00
 1.632926941E+01 3.795339108E+00
 1.640854073E+01 3.794621944E+00
 1.648780060E+01 3.793333054E+00
 1.656707001E+01 3.791449070E+00
 1.664633942E+01 3.788965940E+00
 1.672561073E+01 3.785911083E+00
 1.680488014E+01 3.782352924E+00
 1.688414955E+01 3.778424025E+00
 1.696340942E+01 3.774331093E+00
 1.704268074E+01 3.770339012E+00
 1.712195015E+01 3.766737938E+00
 1.720121956E+01 3.763789892E+00
 1.728049088E+01 3.761676073E+00
 1.735976028E+01 3.760468006E+00
 1.743902016E+01 3.760118008E+00
 1.751828957E+01 3.760483027E+00
 1.759756088E+01 3.761363029E+00
 1.767683029E+01 3.762542963E+00
 1.775609970E+01 3.763834000E+00
 1.783536911E+01 3.765091896E+00
 1.791463089E+01 3.766238928E+00
 1.799390030E+01 3.767254114E+00
 1.807316971E+01 3.768170118E+00
 1.815243912E+01 3.769047976E+00
 1.823171043E+01 3.769962072E+00
 1.831097984E+01 3.770975113E+00
 1.839023972E+01 3.772120953E+00
 1.846950912E+01 3.773396015E+00
 1.854878044E+01 3.774751902E+00
 1.862804985E+01 3.776103973E+00
 1.870731926E+01 3.777338982E+00
 1.878659058E+01 3.778326035E+00
 1.886585045E+01 3.778933048E+00
 1.894511986E+01 3.779038906E+00
 1.902438927E+01 3.778547049E+00
 1.910366058E+01 3.777400017E+00
 1.918292999E+01 3.775582075E+00
 1.926219940E+01 3.773133039E+00
 1.934145927E+01 3.770149946E+00
 1.942073059E+01 3.766778946E+00
 1.950000000E+01 3.763210058E+00
 1.957926941E+01 3.759654045E+00
 1.965854073E+01 3.756314993E+00
 1.973780060E+01 3.753371954E+00
 1.981707001E+01 3.750946045E+00
 1.989633942E+01 3.749099970E+00
 1.997561073E+01 3.747832060E+00
 2.005488014E+01 3.747092009E+00
 2.013414955E+01 3.746800900E+00
 2.021340942E+01 3.746869087E+00
 2.029268074E+01 3.747216940E+00
 2.037195015E+01 3.747782946E+00
 2.045121956E+01 3.748526096E+00
 2.053049088E+01 3.749428988E+00
 2.060976028E+01 3.750484943E+00
 2.068902016E+01 3.751688957E+00
 2.076828957E+01 3.753032923E+00
 2.084756088E+01 3.754494905E+00
 2.092683029E+01 3.756035089E+00
 2.100609970E+01 3.757594109E+00
 2.108536911E+01 3.759098053E+00
 2.116463089E+01 3.760454893E+00
 2.124390030E+01 3.761569023E+00
 2.132316971E+01 3.762340069E+00
 2.140243912E+01 3.762679100E+00
 2.148171043E+01 3.762509108E+00
 2.156097984E+01 3.761785030E+00
 2.164023972E+01 3.760490894E+00
 2.171950912E+01 3.758655071E+00
 2.179878044E+01 3.756345034E+00
 2.187804985E+01 3.753667116E+00
 2.195731926E+01 3.750758886E+00
 2.203659058E+01 3.747770071E+00
 2.211585045E+01 3.744844913E+00
 2.219511986E+01 3.742113113E+00
 2.227438927E+01 3.739667892E+00
 2.235366058E+01 3.737571955E+00
 2.243292999E+01 3.735855103E+00
 2.251219940E+01 3.734523058E+00
 2.259145927E+01 3.733567953E+00
 2.267073059E+01 3.732980013E+00
 2.275000000E+01 3.732747078E+00
 2.282926941E+01 3.732858896E+00
 2.290854073E+01 3.733305931E+00
 2.298780060E+01 3.734069109E+00
 2.306707001E+01 3.735121965E+00
 2.314633942E+01 3.736424923E+00
 2.322561073E+01 3.737921000E+00
 2.330488014E+01 3.739542007E+00
 2.338414955E+01 3.741203070E+00
 2.346340942E+01 3.742815971E+00
 2.354268074E+01 3.744282007E+00
 2.362195015E+01 3.745506048E+00
 2.370121956E+01 3.746397972E+00
 2.378049088E+01 3.746879101E+00
 2.385976028E+01 3.746890068E+00
 2.393902016E+01 3.746396065E+00
 2.401828957E+01 3.745390892E+00
 2.409756088E+01 3.743905067E+00
 2.417683029E+01 3.741997957E+00
 2.425609970E+01 3.739758015E+00
 2.433536911E+01 3.737293959E+00
 2.441463089E+01 3.734720945E+00
 2.449390030E+01 3.732146978E+00
 2.457316971E+01 3.729670048E+00
 2.465243912E+01 3.727365017E+00
 2.473171043E+01 3.725291014E+00
 2.481097984E+01 3.723488092E+00
 2.489023972E+01 3.721991062E+00
 2.496950912E+01 3.720828056E+00
 2.504878044E+01 3.720024109E+00
 2.512804985E+01 3.719599962E+00
 2.520731926E+01 3.719569921E+00
 2.528659058E+01 3.719929934E+00
 2.536585045E+01 3.720658064E+00
 2.544511986E+01 3.721709013E+00
 2.552438927E+01 3.723016977E+00
 2.560366058E+01 3.724498987E+00
 2.568292999E+01 3.726058960E+00
 2.576219940E+01 3.727593899E+00
 2.584145927E+01 3.729000092E+00
 2.592073059E+01 3.730182886E+00
 2.600000000E+01 3.731056929E+00
 2.607926941E+01 3.731555939E+00
 2.615854073E+01 3.731631041E+00
 2.623780060E+01 3.731261015E+00
 2.631707001E+01 3.730446100E+00
 2.639633942E+01 3.729213953E+00
 2.647561073E+01 3.727612972E+00
 2.655488014E+01 3.725709915E+00
 2.663414955E+01 3.723583937E+00
 2.671340942E+01 3.721318960E+00
 2.679268074E+01 3.719002008E+00
 2.687195015E+01 3.716716051E+00
 2.695121956E+01 3.714536905E+00
 2.703049088E+01 3.712538004E+00
 2.710976028E+01 3.710786104E+00
 2.718902016E+01 3.709338903E+00
 2.726828957E+01 3.708245993E+00
 2.734756088E+01 3.707544088E+00
 2.742683029E+01 3.707247972E+00
 2.750609970E+01 3.707355976E+00
 2.758536911E+01 3.707839012E+00
 2.766463089E+01 3.708647966E+00
 2.774390030E+01 3.709712982E+00
 2.782316971E+01 3.710948944E+00
 2.790243912E+01 3.712264061E+00
 2.798171043E+01 3.713562012E+00
 2.806097984E+01 3.714751005E+00
 2.814023972E+01 3.715747118E+00
 2.821950912E+01 3.716475964E+00
 2.829878044E+01 3.716885090E+00
 2.837804985E+01 3.716932058E+00
 2.845731926E+01 3.716598988E+00
 2.853659058E+01 3.715886116E+00
 2.861585045E+01 3.714808941E+00
 2.869511986E+01 3.713403940E+00
 2.877438927E+01 3.711720943E+00
 2.885366058E+01 3.709821939E+00
 2.893292999E+01 3.707778931E+00
 2.901219940E+01 3.705670118E+00
 2.909145927E+01 3.703576088E+00
 2.917073059E+01 3.701581001E+00
 2.925000000E+01 3.699764967E+00
 2.932926941E+01 3.698199987E+00
 2.940854073E+01 3.696945906E+00
 2.948780060E+01 3.696048021E+00
 2.956707001E+01 3.695528984E+00
 2.964633942E+01 3.695389032E+00
 2.972561073E+01 3.695596933E+00
 2.980488014E+01 3.696100950E+00
 2.988414955E+01 3.696830034E+00
 2.996340942E+01 3.697701931E+00
 3.004268074E+01 3.698625088E+00
 3.012195015E+01 3.699510098E+00
 3.020121956E+01 3.700267076E+00