TITLE     = "u-velocity normalized by centerline u-velocity at x=50.0, diagonal cut (y=z)"
VARIABLES = "u/u_CL","2z/D"
ZONE T="USM3D, grid 1 diagonal cut"
    0.000000000E+00    0.392202485E-09
    0.974262258E-07    0.392241706E-05
    0.211212364E-06    0.850000000E-05
    0.552570777E-06    0.130775829E-04
    0.844849455E-06    0.170000000E-04
    0.138974495E-05    0.210850405E-04
    0.202601100E-05    0.258528867E-04
    0.292982585E-05    0.306197795E-04
    0.370383275E-05    0.347048200E-04
    0.478467403E-05    0.389592212E-04
    0.604665141E-05    0.439242400E-04
    0.760938444E-05    0.488892588E-04
    0.894782416E-05    0.531436600E-04
    0.106478829E-04    0.575744500E-04
    0.126327207E-04    0.627453200E-04
    0.149515447E-04    0.679161900E-04
    0.169376818E-04    0.723469800E-04
    0.193444796E-04    0.769614729E-04
    0.221543097E-04    0.823467300E-04
    0.253325079E-04    0.877319871E-04
    0.253329724E-04    0.877324485E-04
    0.280554724E-04    0.923464800E-04
    0.312632875E-04    0.971522854E-04
    0.350081254E-04    0.102760810E-03
    0.391581461E-04    0.108369335E-03
    0.391587505E-04    0.108369815E-03
    0.427138586E-04    0.113175140E-03
    0.468251774E-04    0.118180190E-03
    0.516246324E-04    0.124021240E-03
    0.568693022E-04    0.129862290E-03
    0.613620140E-04    0.134867340E-03
    0.664887384E-04    0.140079900E-03
    0.724733904E-04    0.146163120E-03
    0.789459245E-04    0.152246340E-03
    0.844906030E-04    0.157458900E-03
    0.907551149E-04    0.162887571E-03
    0.980677962E-04    0.169223000E-03
    0.105913660E-03    0.175558429E-03
    0.105915554E-03    0.175560238E-03
    0.112636454E-03    0.180987100E-03
    0.120172760E-03    0.186640849E-03
    0.128969809E-03    0.193239610E-03
    0.138350867E-03    0.199837051E-03
    0.146387029E-03    0.205490800E-03
    0.146387437E-03    0.205491389E-03
    0.146388294E-03    0.205491954E-03
    0.155342324E-03    0.211378948E-03
    0.165795109E-03    0.218250600E-03
    0.176885984E-03    0.225122252E-03
    0.186387538E-03    0.231010400E-03
    0.196921809E-03    0.237142661E-03
    0.209217960E-03    0.244299200E-03
    0.222210963E-03    0.251455739E-03
    0.233342257E-03    0.257588000E-03
    0.245632100E-03    0.263974526E-03
    0.259977227E-03    0.271427800E-03
    0.275082991E-03    0.278881074E-03
    0.288024507E-03    0.285267600E-03
    0.302262871E-03    0.291918866E-03
    0.318882150E-03    0.299681100E-03
    0.336331355E-03    0.307443334E-03
    0.351280748E-03    0.314094600E-03
    0.367678947E-03    0.321021681E-03
    0.386818903E-03    0.329105800E-03
    0.406864116E-03    0.337189919E-03
    0.424037886E-03    0.344117000E-03
    0.442827427E-03    0.351331202E-03
    0.464758287E-03    0.359751242E-03
    0.487676169E-03    0.368169598E-03
    0.507311270E-03    0.375383800E-03
    0.528745193E-03    0.382897167E-03
    0.553762226E-03    0.391665500E-03
    0.579855299E-03    0.400433833E-03
    0.602211062E-03    0.407947200E-03
    0.626566642E-03    0.415772053E-03
    0.654993413E-03    0.424904813E-03
    0.684592873E-03    0.434035747E-03
    0.709953084E-03    0.441860600E-03
    0.737533525E-03    0.450009860E-03
    0.769723869E-03    0.459520300E-03
    0.803191825E-03    0.469030740E-03
    0.831866904E-03    0.477180000E-03
    0.863003777E-03    0.485667141E-03
    0.899344633E-03    0.495572890E-03
    0.937077498E-03    0.505476659E-03
    0.969406950E-03    0.513963800E-03
    0.100446281E-02    0.522802805E-03
    0.104537732E-02    0.533118200E-03
    0.108780798E-02    0.543433595E-03
    0.112416295E-02    0.552272600E-03
    0.116353427E-02    0.561478051E-03
    0.120948499E-02    0.572221100E-03
    0.125708676E-02    0.582964149E-03
    0.129787278E-02    0.592169600E-03
    0.134199284E-02    0.601756726E-03
    0.139348547E-02    0.612945200E-03
    0.144677598E-02    0.624133674E-03
    0.149243657E-02    0.633720800E-03
    0.154177866E-02    0.643705382E-03
    0.159936524E-02    0.655358865E-03
    0.165890963E-02    0.667010018E-03
    0.170992916E-02    0.676994600E-03
    0.176501040E-02    0.687393158E-03
    0.182929455E-02    0.699529813E-03
    0.189571014E-02    0.711664042E-03
    0.195261463E-02    0.722062600E-03
    0.195261756E-02    0.722063683E-03
    0.195262344E-02    0.722064722E-03
    0.201400283E-02    0.732892301E-03
    0.208564382E-02    0.745530900E-03
    0.215960472E-02    0.758169499E-03
    0.222297790E-02    0.768999200E-03
    0.229128390E-02    0.780277856E-03
    0.237100121E-02    0.793440400E-03
    0.245323549E-02    0.806602944E-03
    0.245324731E-02    0.806604071E-03
    0.252371369E-02    0.817881600E-03
    0.259960989E-02    0.829627901E-03
    0.259962246E-02    0.829630642E-03
    0.268819296E-02    0.843337571E-03
    0.277951180E-02    0.857044499E-03
    0.277953392E-02    0.857048414E-03
    0.285777632E-02    0.868790800E-03
    0.294200541E-02    0.881024081E-03
    0.304030434E-02    0.895300700E-03
    0.314159461E-02    0.909577319E-03
    0.322838690E-02    0.921810600E-03
    0.332174717E-02    0.934551072E-03
    0.343070148E-02    0.949421087E-03
    0.354291202E-02    0.964288128E-03
    0.363906201E-02    0.977028600E-03
    0.374242888E-02    0.990297306E-03
    0.386306101E-02    0.100578230E-02
    0.398723518E-02    0.102126729E-02
    0.409363752E-02    0.103453600E-02
    0.420796612E-02    0.104835481E-02
    0.434138961E-02    0.106448180E-02
    0.447866827E-02    0.108060879E-02
    0.459629991E-02    0.109442760E-02
    0.472263208E-02    0.110881932E-02
    0.487006231E-02    0.112561490E-02
    0.502168683E-02    0.114241048E-02
    0.515161260E-02    0.115680220E-02
    0.529108535E-02    0.117179059E-02
    0.545385058E-02    0.118928250E-02
    0.562117873E-02    0.120677441E-02
    0.576456173E-02    0.122176280E-02
    0.591841298E-02    0.123737264E-02
    0.609795618E-02    0.125558980E-02
    0.628246485E-02    0.127380696E-02
    0.644057059E-02    0.128941680E-02
    0.661015394E-02    0.130567379E-02
    0.680805548E-02    0.132464620E-02
    0.701135911E-02    0.134361861E-02
    0.718557136E-02    0.135987560E-02
    0.737232753E-02    0.137680664E-02
    0.737238058E-02    0.137681060E-02
    0.759033620E-02    0.139656570E-02
    0.781416884E-02    0.141632476E-02
    0.781420098E-02    0.141632645E-02
    0.800601603E-02    0.143325580E-02
    0.821161665E-02    0.145088877E-02
    0.845154647E-02    0.147146700E-02
    0.869784566E-02    0.149204523E-02
    0.869790532E-02    0.149205110E-02
    0.890895034E-02    0.150967820E-02
    0.913511637E-02    0.152804222E-02
    0.939904401E-02    0.154947360E-02
    0.966992873E-02    0.157090498E-02
    0.990204436E-02    0.158926900E-02
    0.990205631E-02    0.158927091E-02
    0.990208016E-02    0.158927275E-02
    0.101506978E-01    0.160839438E-02
    0.104408523E-01    0.163071430E-02
    0.107385757E-01    0.165303422E-02
    0.109936907E-01    0.167215960E-02
    0.109937038E-01    0.167216159E-02
    0.109937300E-01    0.167216350E-02
    0.112669044E-01    0.169207791E-02
    0.115857157E-01    0.171532320E-02
    0.119127617E-01    0.173856849E-02
    0.121930191E-01    0.175848680E-02
    0.124930496E-01    0.177923094E-02
    0.128431690E-01    0.180344000E-02
    0.132022487E-01    0.182764906E-02
    0.135099579E-01    0.184839320E-02
    0.138392780E-01    0.186999737E-02
    0.138393326E-01    0.187000241E-02
    0.142236097E-01    0.189521262E-02
    0.146176351E-01    0.192042283E-02
    0.146176917E-01    0.192042499E-02
    0.149553664E-01    0.194202700E-02
    0.153167076E-01    0.196452668E-02
    0.157383678E-01    0.199078450E-02
    0.161706371E-01    0.201704232E-02
    0.165410698E-01    0.203954200E-02
    0.169373572E-01    0.206297498E-02
    0.173997948E-01    0.209032200E-02
    0.178737771E-01    0.211766902E-02
    0.182799579E-01    0.214110200E-02
    0.187143976E-01    0.216550636E-02
    0.192213531E-01    0.219398700E-02
    0.197408730E-01    0.222246764E-02
    0.201860797E-01    0.224687200E-02
    0.206621633E-01    0.227228788E-02
    0.212177111E-01    0.230194900E-02
    0.217869321E-01    0.233161012E-02
    0.222747330E-01    0.235702600E-02
    0.227962650E-01    0.238349585E-02
    0.234048437E-01    0.241438700E-02
    0.240283021E-01    0.244527814E-02
    0.245625858E-01    0.247174800E-02
    0.251337027E-01    0.249931521E-02
    0.258001392E-01    0.253148700E-02
    0.264827685E-01    0.256365879E-02
    0.270677627E-01    0.259122600E-02
    0.276929626E-01    0.261993625E-02
    0.284225046E-01    0.265344535E-02
    0.291696692E-01    0.268694775E-02
    0.298099699E-01    0.271565800E-02
    0.304941326E-01    0.274555835E-02
    0.312924734E-01    0.278045300E-02
    0.321099855E-01    0.281534765E-02
    0.328105771E-01    0.284524800E-02
    0.335589877E-01    0.287638784E-02
    0.344322943E-01    0.291272900E-02
    0.353264521E-01    0.294907016E-02
    0.360927269E-01    0.298021000E-02
    0.369110760E-01    0.301264147E-02
    0.378659797E-01    0.305049378E-02
    0.388435479E-01    0.308833853E-02
    0.396813160E-01    0.312077000E-02
    0.405756895E-01    0.315454570E-02
    0.405758379E-01    0.315455358E-02
    0.416194059E-01    0.319396300E-02
    0.426876645E-01    0.323338030E-02
    0.436031583E-01    0.326715600E-02
    0.445801106E-01    0.330233177E-02
    0.445802727E-01    0.330233998E-02
    0.457201878E-01    0.334338300E-02
    0.468867600E-01    0.338443422E-02
    0.468870427E-01    0.338444595E-02
    0.478867300E-01    0.341961000E-02
    0.489531918E-01    0.345624445E-02
    0.501975915E-01    0.349899800E-02
    0.514707154E-01    0.354175155E-02
    0.514710240E-01    0.354176376E-02
    0.525620332E-01    0.357838600E-02
    0.537251235E-01    0.361653958E-02
    0.550822670E-01    0.366106600E-02
    0.564705272E-01    0.370559242E-02
    0.576602879E-01    0.374374600E-02
    0.589273264E-01    0.378348101E-02
    0.604057401E-01    0.382985300E-02
    0.619175702E-01    0.387622499E-02
    0.632132498E-01    0.391596000E-02
    0.645915063E-01    0.395734288E-02
    0.661996766E-01    0.400563800E-02
    0.678435351E-01    0.405393312E-02
    0.692523833E-01    0.409531600E-02
    0.707487507E-01    0.413841413E-02
    0.724947028E-01    0.418871100E-02
    0.742784908E-01    0.423900787E-02
    0.758072914E-01    0.428210600E-02
    0.774279304E-01    0.432699091E-02
    0.793188448E-01    0.437937300E-02
    0.812494655E-01    0.443175509E-02
    0.829041474E-01    0.447664000E-02
    0.846539256E-01    0.452338598E-02
    0.866954676E-01    0.457794000E-02
    0.887781479E-01    0.463249402E-02
    0.905632032E-01    0.467924000E-02
    0.924450518E-01    0.472792412E-02
    0.946406218E-01    0.478474000E-02
    0.968781232E-01    0.484155588E-02
    0.987959304E-01    0.489024000E-02
    0.100810007E+00    0.494094255E-02
    0.100810341E+00    0.494095438E-02
    0.103159976E+00    0.500011400E-02
    0.105551706E+00    0.505928545E-02
    0.107601786E+00    0.510998800E-02
    0.109745141E+00    0.516279296E-02
    0.112245601E+00    0.522441800E-02
    0.114786760E+00    0.528604304E-02
    0.116965024E+00    0.533884800E-02
    0.119230333E+00    0.539384167E-02
    0.121872933E+00    0.545802100E-02
    0.124553799E+00    0.552220033E-02
    0.126851942E+00    0.557719400E-02
    0.129227075E+00    0.563446821E-02
    0.129227749E+00    0.563448158E-02
    0.131998492E+00    0.570130900E-02
    0.134804010E+00    0.576814979E-02
    0.137209153E+00    0.582542400E-02
    0.139678641E+00    0.588507243E-02
    0.142559080E+00    0.595468400E-02
    0.145468660E+00    0.602429557E-02
    0.145469076E+00    0.602430154E-02
    0.147963720E+00    0.608394400E-02
    0.150506410E+00    0.614606539E-02
    0.150507131E+00    0.614607989E-02
    0.153472950E+00    0.621856300E-02
    0.156462344E+00    0.629106060E-02
    0.159025462E+00    0.635318200E-02
    0.161618334E+00    0.641787927E-02
    0.161619069E+00    0.641789437E-02
    0.164643209E+00    0.649338300E-02
    0.167684030E+00    0.656888673E-02
    0.170291427E+00    0.663358400E-02
    0.172909787E+00    0.670096328E-02
    0.175963242E+00    0.677959700E-02
    0.179025892E+00    0.685823072E-02
    0.181652177E+00    0.692561000E-02
    0.184270454E+00    0.699578296E-02
    0.187323605E+00    0.707767700E-02
    0.190378901E+00    0.715957104E-02
    0.192999055E+00    0.722974400E-02
    0.195593642E+00    0.730282648E-02
    0.198618989E+00    0.738811600E-02
    0.201640048E+00    0.747340552E-02
    0.204230995E+00    0.754648800E-02
    0.206781217E+00    0.762259996E-02
    0.209754684E+00    0.771143388E-02
    0.212718333E+00    0.780025004E-02
    0.215260168E+00    0.787636200E-02
    0.217749178E+00    0.795562990E-02
    0.220651149E+00    0.804813800E-02
    0.223538887E+00    0.814064610E-02
    0.226015717E+00    0.821991400E-02
    0.228430883E+00    0.830246842E-02
    0.231246660E+00    0.839881200E-02
    0.234044973E+00    0.849515558E-02
    0.236445175E+00    0.857771000E-02
    0.238778094E+00    0.866368661E-02
    0.241497914E+00    0.876402400E-02
    0.244198146E+00    0.886436139E-02
    0.246514279E+00    0.895033800E-02
    0.248760410E+00    0.903987986E-02
    0.251379017E+00    0.914437800E-02
    0.253976912E+00    0.924887614E-02
    0.256205286E+00    0.933841800E-02
    0.258363379E+00    0.943167185E-02
    0.260879330E+00    0.954050200E-02
    0.263374292E+00    0.964933215E-02
    0.265514381E+00    0.974258600E-02
    0.267585841E+00    0.983970597E-02
    0.270000796E+00    0.995304800E-02
    0.272395123E+00    0.100663900E-01
    0.274448893E+00    0.101635100E-01
    0.276436824E+00    0.102646567E-01
    0.276437387E+00    0.102646803E-01
    0.278755140E+00    0.103826980E-01
    0.281053140E+00    0.105007393E-01
    0.281053467E+00    0.105007494E-01
    0.283024684E+00    0.106018860E-01
    0.284934590E+00    0.107072264E-01
    0.287161258E+00    0.108301620E-01
    0.289369405E+00    0.109530976E-01
    0.291263331E+00    0.110584380E-01
    0.291263424E+00    0.110584490E-01
    0.291263606E+00    0.110584595E-01
    0.293100749E+00    0.111681457E-01
    0.295242829E+00    0.112961780E-01
    0.297367849E+00    0.114242103E-01
    0.299190535E+00    0.115339180E-01
    0.300961606E+00    0.116481739E-01
    0.303026500E+00    0.117815140E-01
    0.305075923E+00    0.119148541E-01
    0.306833637E+00    0.120291100E-01
    0.306833724E+00    0.120291219E-01
    0.306833893E+00    0.120291333E-01
    0.308545070E+00    0.121481032E-01
    0.310540374E+00    0.122869720E-01
    0.312521865E+00    0.124258408E-01
    0.314221359E+00    0.125448340E-01
    0.315879487E+00    0.126687607E-01
    0.317812787E+00    0.128134015E-01
    0.319733949E+00    0.129580133E-01
    0.321381653E+00    0.130819400E-01
    0.322992895E+00    0.132110041E-01
    0.324871577E+00    0.133616260E-01
    0.326739732E+00    0.135122479E-01
    0.328341935E+00    0.136413120E-01
    0.329912343E+00    0.137757277E-01
    0.331743477E+00    0.139325950E-01
    0.333565664E+00    0.140894623E-01
    0.335128388E+00    0.142238780E-01
    0.336663575E+00    0.143638663E-01
    0.338453669E+00    0.145272370E-01
    0.340236244E+00    0.146906077E-01
    0.341764992E+00    0.148305960E-01
    0.343270219E+00    0.149763881E-01
    0.345025458E+00    0.151465320E-01
    0.346774522E+00    0.153166759E-01
    0.348274503E+00    0.154624680E-01
    0.349754665E+00    0.156143048E-01
    0.351480744E+00    0.157915030E-01
    0.353201907E+00    0.159687012E-01
    0.354677896E+00    0.161205380E-01
    0.356137204E+00    0.162786695E-01
    0.357838988E+00    0.164632140E-01
    0.359537006E+00    0.166477585E-01
    0.360993134E+00    0.168058900E-01
    0.362435713E+00    0.169705780E-01
    0.364118006E+00    0.171627740E-01
    0.365797610E+00    0.173549700E-01
    0.367237895E+00    0.175196580E-01
    0.368667168E+00    0.176911738E-01
    0.370334006E+00    0.178913380E-01
    0.371999159E+00    0.180915022E-01
    0.373426979E+00    0.182630180E-01
    0.374846176E+00    0.184416449E-01
    0.376501255E+00    0.186501080E-01
    0.378155449E+00    0.188585711E-01
    0.379573878E+00    0.190371980E-01
    0.380985773E+00    0.192232304E-01
    0.382632357E+00    0.194403360E-01
    0.384278942E+00    0.196574416E-01
    0.385690800E+00    0.198434740E-01
    0.387097764E+00    0.200372197E-01
    0.388738611E+00    0.202633270E-01
    0.390380182E+00    0.204894343E-01
    0.391787685E+00    0.206831800E-01
    0.393191993E+00    0.208849584E-01
    0.394829730E+00    0.211204400E-01
    0.396468715E+00    0.213559216E-01
    0.397874059E+00    0.215577000E-01
    0.399277553E+00    0.217678446E-01
    0.400914469E+00    0.220130900E-01
    0.402553166E+00    0.222583353E-01
    0.403958227E+00    0.224684800E-01
    0.405362446E+00    0.226873370E-01
    0.405362680E+00    0.226873881E-01
    0.407000382E+00    0.229427755E-01
    0.408640312E+00    0.231981630E-01
    0.408640546E+00    0.231981849E-01
    0.410046609E+00    0.234170200E-01
    0.410046679E+00    0.234170428E-01
    0.410046817E+00    0.234170647E-01
    0.411452993E+00    0.236449493E-01
    0.411453392E+00    0.236450025E-01
    0.413093690E+00    0.239109766E-01
    0.414736926E+00    0.241769507E-01
    0.416145777E+00    0.244048800E-01
    0.417555810E+00    0.246422601E-01
    0.419200330E+00    0.249192900E-01
    0.420847890E+00    0.251963199E-01
    0.422260450E+00    0.254337000E-01
    0.423674696E+00    0.256809184E-01
    0.423675096E+00    0.256809761E-01
    0.425324646E+00    0.259694300E-01
    0.426977597E+00    0.262579416E-01
    0.426977999E+00    0.262580240E-01
    0.428395077E+00    0.265051600E-01
    0.429814886E+00    0.267626321E-01
    0.431470819E+00    0.270631400E-01
    0.433130431E+00    0.273635879E-01
    0.434553311E+00    0.276210600E-01
    0.435979278E+00    0.278892057E-01
    0.437642458E+00    0.282021400E-01
    0.439309477E+00    0.285150743E-01
    0.440738692E+00    0.287832200E-01
    0.442171329E+00    0.290624823E-01
    0.443842299E+00    0.293883900E-01
    0.445517291E+00    0.297142978E-01
    0.446953336E+00    0.299935600E-01
    0.448393164E+00    0.302844049E-01
    0.450072572E+00    0.306238300E-01
    0.451756106E+00    0.309632551E-01
    0.453199508E+00    0.312541000E-01
    0.454646958E+00    0.315569983E-01
    0.456335282E+00    0.319104900E-01
    0.458027989E+00    0.322639817E-01
    0.459479195E+00    0.325668800E-01
    0.460934597E+00    0.328823392E-01
    0.462632135E+00    0.332504900E-01
    0.464334228E+00    0.336186408E-01
    0.465793495E+00    0.339341000E-01
    0.467257003E+00    0.342626370E-01
    0.468964066E+00    0.346460500E-01
    0.470675789E+00    0.350294630E-01
    0.472143291E+00    0.353580000E-01
    0.473615206E+00    0.357001547E-01
    0.475332060E+00    0.360994600E-01
    0.477053660E+00    0.364987653E-01
    0.478529606E+00    0.368409200E-01
    0.480010057E+00    0.371972647E-01
    0.481736894E+00    0.376131300E-01
    0.483468562E+00    0.380289953E-01
    0.484953153E+00    0.383853400E-01
    0.486442133E+00    0.387564560E-01
    0.488178953E+00    0.391895600E-01
    0.489920690E+00    0.396226640E-01
    0.491413924E+00    0.399937800E-01
    0.492911584E+00    0.403802858E-01
    0.494658547E+00    0.408313500E-01
    0.496410533E+00    0.412824143E-01
    0.497912488E+00    0.416689200E-01
    0.499418718E+00    0.420714477E-01
    0.501175616E+00    0.425412100E-01
    0.502937697E+00    0.430109723E-01
    0.504448327E+00    0.434135000E-01
    0.505963203E+00    0.438327141E-01
    0.507730254E+00    0.443219500E-01
    0.509502226E+00    0.448111859E-01
    0.509502479E+00    0.448112278E-01
    0.511021649E+00    0.452304000E-01
    0.511021725E+00    0.452304437E-01
    0.511021874E+00    0.452304856E-01
    0.512544909E+00    0.456669973E-01
    0.512545341E+00    0.456670992E-01
    0.514322288E+00    0.461765200E-01
    0.516104607E+00    0.466860427E-01
    0.517632461E+00    0.471226400E-01
    0.517632538E+00    0.471226855E-01
    0.517632688E+00    0.471227291E-01
    0.519164401E+00    0.475773404E-01
    0.520951258E+00    0.481079900E-01
    0.522743311E+00    0.486386396E-01
    0.522743567E+00    0.486386850E-01
    0.524279922E+00    0.490933400E-01
    0.525820213E+00    0.495668911E-01
    0.527616936E+00    0.501195953E-01
    0.529418832E+00    0.506721889E-01
    0.529419090E+00    0.506722363E-01
    0.530963819E+00    0.511457400E-01
    0.530963896E+00    0.511457893E-01
    0.530964048E+00    0.511458366E-01
    0.532512369E+00    0.516389217E-01
    0.534318610E+00    0.522145376E-01
    0.536130121E+00    0.527900383E-01
    0.536130561E+00    0.527902027E-01
    0.537683331E+00    0.532832200E-01
    0.537683408E+00    0.532832714E-01
    0.537683561E+00    0.532833207E-01
    0.539240045E+00    0.537968490E-01
    0.541055821E+00    0.543962700E-01
    0.542877133E+00    0.549956910E-01
    0.544438481E+00    0.555093200E-01
    0.546003015E+00    0.560442454E-01
    0.547828097E+00    0.566685824E-01
    0.549658726E+00    0.572927946E-01
    0.551228049E+00    0.578277200E-01
    0.552800325E+00    0.583848232E-01
    0.554634387E+00    0.590349800E-01
    0.556474081E+00    0.596851368E-01
    0.558051219E+00    0.602422400E-01
    0.559631118E+00    0.608224439E-01
    0.561474124E+00    0.614995600E-01
    0.563322771E+00    0.621766761E-01
    0.564907538E+00    0.627568800E-01
    0.566494847E+00    0.633611353E-01
    0.568346502E+00    0.640663200E-01
    0.570203863E+00    0.647715047E-01
    0.571796108E+00    0.653757600E-01
    0.573390554E+00    0.660050680E-01
    0.575250523E+00    0.667394900E-01
    0.577116401E+00    0.674739120E-01
    0.578715911E+00    0.681032200E-01
    0.580317246E+00    0.687586190E-01
    0.582185273E+00    0.695234900E-01
    0.584059198E+00    0.702883610E-01
    0.585665628E+00    0.709437600E-01
    0.587273737E+00    0.716263298E-01
    0.589149667E+00    0.724229897E-01
    0.591031602E+00    0.732194902E-01
    0.592644893E+00    0.739020600E-01
    0.594259389E+00    0.746129312E-01
    0.596142747E+00    0.754425400E-01
    0.598032292E+00    0.762721488E-01
    0.599652083E+00    0.769830200E-01
    0.601272802E+00    0.777233647E-01
    0.603163493E+00    0.785873700E-01
    0.605060360E+00    0.794513753E-01
    0.606686411E+00    0.801917200E-01
    0.608313041E+00    0.809627564E-01
    0.610210585E+00    0.818625800E-01
    0.612114400E+00    0.827624036E-01
    0.613746440E+00    0.835334400E-01
    0.615378699E+00    0.843364465E-01
    0.617282818E+00    0.852735800E-01
    0.619193475E+00    0.862107135E-01
    0.620831300E+00    0.870137200E-01
    0.622468830E+00    0.878500162E-01
    0.624379071E+00    0.888260000E-01
    0.626295743E+00    0.898019838E-01
    0.626296017E+00    0.898020674E-01
    0.627939136E+00    0.906382800E-01
    0.629581592E+00    0.915092504E-01
    0.629581866E+00    0.915094537E-01
    0.631497824E+00    0.925258016E-01
    0.633420597E+00    0.935421496E-01
    0.635068843E+00    0.944131200E-01
    0.636715843E+00    0.953201997E-01
    0.636716310E+00    0.953204114E-01
    0.638637733E+00    0.963787900E-01
    0.640565961E+00    0.974373803E-01
    0.640566236E+00    0.974374710E-01
    0.642219250E+00    0.983444600E-01
    0.643870811E+00    0.992891488E-01
    0.645797509E+00    0.100391630E+00
    0.647730999E+00    0.101494111E+00
    0.647731275E+00    0.101494206E+00
    0.649388739E+00    0.102438800E+00
    0.651044253E+00    0.103422653E+00
    0.652975489E+00    0.104570840E+00
    0.654913591E+00    0.105719027E+00
    0.654913868E+00    0.105719125E+00
    0.656575349E+00    0.106702880E+00
    0.658234502E+00    0.107727526E+00
    0.660170026E+00    0.108923320E+00
    0.662112610E+00    0.110119114E+00
    0.663777891E+00    0.111143760E+00
    0.665440192E+00    0.112210884E+00
    0.667379422E+00    0.113456250E+00
    0.669326000E+00    0.114701616E+00
    0.670994585E+00    0.115768740E+00
    0.672659681E+00    0.116880108E+00
    0.674602137E+00    0.118177110E+00
    0.676551952E+00    0.119474112E+00
    0.678223418E+00    0.120585480E+00
    0.679890803E+00    0.121742925E+00
    0.681836022E+00    0.123093700E+00
    0.683788749E+00    0.124444475E+00
    0.685462659E+00    0.125601920E+00
    0.687131959E+00    0.126807353E+00
    0.689079310E+00    0.128214130E+00
    0.691034426E+00    0.129620907E+00
    0.692710352E+00    0.130826340E+00
    0.694380940E+00    0.132081749E+00
    0.696329795E+00    0.133546850E+00
    0.698286607E+00    0.135011951E+00
    0.699963986E+00    0.136267360E+00
    0.701635507E+00    0.137574817E+00
    0.703585482E+00    0.139100660E+00
    0.705543520E+00    0.140626503E+00
    0.707221977E+00    0.141933960E+00
    0.708893740E+00    0.143295625E+00
    0.710844014E+00    0.144884730E+00
    0.712802607E+00    0.146473835E+00
    0.714481498E+00    0.147835500E+00
    0.716152991E+00    0.149253620E+00
    0.718102924E+00    0.150908610E+00
    0.720061346E+00    0.152563600E+00
    0.721740123E+00    0.153981720E+00
    0.723410794E+00    0.155458635E+00
    0.725359788E+00    0.157182240E+00
    0.727317357E+00    0.158905845E+00
    0.728995421E+00    0.160382760E+00
    0.730664565E+00    0.161920910E+00
    0.732611821E+00    0.163715980E+00
    0.734567929E+00    0.165511050E+00
    0.736244704E+00    0.167049200E+00
    0.737911669E+00    0.168651115E+00
    0.739856354E+00    0.170520600E+00
    0.741810169E+00    0.172390085E+00
    0.743484957E+00    0.173992000E+00
    0.745149020E+00    0.175660333E+00
    0.747090314E+00    0.177607330E+00
    0.749040712E+00    0.179554327E+00
    0.749041185E+00    0.179554883E+00
    0.750712931E+00    0.181222660E+00
    0.752373416E+00    0.182960161E+00
    0.754310518E+00    0.184987880E+00
    0.756257070E+00    0.187015598E+00
    0.757925707E+00    0.188753100E+00
    0.759581741E+00    0.190562640E+00
    0.761513702E+00    0.192674430E+00
    0.763455412E+00    0.194786220E+00
    0.765119836E+00    0.196595760E+00
    0.766770625E+00    0.198480329E+00
    0.768696485E+00    0.200679900E+00
    0.770632265E+00    0.202879031E+00
    0.772291589E+00    0.204763600E+00
    0.773936030E+00    0.206726285E+00
    0.773936496E+00    0.206726743E+00
    0.775855051E+00    0.209017029E+00
    0.777783801E+00    0.211307315E+00
    0.777784077E+00    0.211307511E+00
    0.779437493E+00    0.213270000E+00
    0.781075122E+00    0.215314087E+00
    0.782985645E+00    0.217699600E+00
    0.784906728E+00    0.220085113E+00
    0.786553440E+00    0.222129200E+00
    0.788182999E+00    0.224258011E+00
    0.790084062E+00    0.226742648E+00
    0.791995940E+00    0.229226789E+00
    0.791996405E+00    0.229227498E+00
    0.793635123E+00    0.231355600E+00
    0.795255638E+00    0.233572642E+00
    0.797146164E+00    0.236160000E+00
    0.799048038E+00    0.238747358E+00
    0.800678286E+00    0.240964400E+00
    0.802288722E+00    0.243273412E+00
    0.804167484E+00    0.245968100E+00
    0.806057871E+00    0.248662788E+00
    0.807678277E+00    0.250971800E+00
    0.809277585E+00    0.253376518E+00
    0.811143420E+00    0.256182900E+00
    0.813021308E+00    0.258989282E+00
    0.814630962E+00    0.261394000E+00
    0.816217974E+00    0.263898440E+00
    0.818069368E+00    0.266821200E+00
    0.819933283E+00    0.269743960E+00
    0.821530979E+00    0.272248400E+00
    0.823104542E+00    0.274856623E+00
    0.824940344E+00    0.277900500E+00
    0.826789050E+00    0.280944377E+00
    0.828373709E+00    0.283552600E+00
    0.829932678E+00    0.286268989E+00
    0.831751424E+00    0.289439100E+00
    0.833583695E+00    0.292609211E+00
    0.835154289E+00    0.295325600E+00
    0.836697370E+00    0.298154632E+00
    0.838497569E+00    0.301456200E+00
    0.840312082E+00    0.304757768E+00
    0.841867437E+00    0.307586800E+00
    0.843393560E+00    0.310533089E+00
    0.845174007E+00    0.313971500E+00
    0.846969450E+00    0.317409911E+00
    0.848508478E+00    0.320356200E+00
    0.850016497E+00    0.323424684E+00
    0.851775868E+00    0.327005700E+00
    0.853551260E+00    0.330586716E+00
    0.855073006E+00    0.333655200E+00
    0.856561827E+00    0.336850862E+00
    0.856562074E+00    0.336851608E+00
    0.858298887E+00    0.340580300E+00
    0.860052979E+00    0.344309738E+00
    0.861556488E+00    0.347505400E+00
    0.863025278E+00    0.350833548E+00
    0.864738767E+00    0.354717600E+00
    0.866470707E+00    0.358601652E+00
    0.867955224E+00    0.361929800E+00
    0.867955295E+00    0.361930147E+00
    0.867955439E+00    0.361930479E+00
    0.869403169E+00    0.365395971E+00
    0.871092287E+00    0.369441100E+00
    0.872801371E+00    0.373486229E+00
    0.874266341E+00    0.376952400E+00
    0.875692610E+00    0.380562224E+00
    0.875693015E+00    0.380563066E+00
    0.877357095E+00    0.384775000E+00
    0.879043099E+00    0.388987776E+00
    0.880488251E+00    0.392597600E+00
    0.881893068E+00    0.396357121E+00
    0.883531898E+00    0.400744600E+00
    0.885194641E+00    0.405132079E+00
    0.886619938E+00    0.408891600E+00
    0.888003141E+00    0.412807003E+00
    0.889616844E+00    0.417376400E+00
    0.891256932E+00    0.421945797E+00
    0.892662757E+00    0.425861200E+00
    0.892662823E+00    0.425861608E+00
    0.892662960E+00    0.425861999E+00
    0.894025024E+00    0.429938899E+00
    0.895614218E+00    0.434697700E+00
    0.897232826E+00    0.439456501E+00
    0.898620229E+00    0.443534200E+00
    0.899962576E+00    0.447781024E+00
    0.901528516E+00    0.452737696E+00
    0.903127289E+00    0.457693376E+00
    0.904497696E+00    0.461940200E+00
    0.904497760E+00    0.461940642E+00
    0.904497894E+00    0.461941067E+00