TITLE     = ""
VARIABLES = "u+"
"log(y+)"
"uplus"
ZONE T="ZONE 001"
 STRANDID=0, SOLUTIONTIME=0
 I=384, J=1, K=1, ZONETYPE=Ordered
 DATAPACKING=POINT
 DT=(SINGLE SINGLE SINGLE )
 PASSIVEVARLIST=[3]
 1.209739000E-01 -9.173083901E-01
 2.420784980E-01 -6.160765290E-01
 3.634282053E-01 -4.396486878E-01
 4.851369858E-01 -3.142389953E-01
 6.073197722E-01 -2.167237997E-01
 7.300918102E-01 -1.368031949E-01
 8.535686135E-01 -6.898342818E-02
 9.778661728E-01 -9.985004552E-03
 1.103101015E+00 4.230706021E-02
 1.229390979E+00 8.933676779E-02
 1.356852055E+00 1.321339011E-01
 1.485602021E+00 1.714584976E-01
 1.615757942E+00 2.078877985E-01
 1.747436047E+00 2.418701947E-01
 1.880751014E+00 2.737610936E-01
 2.015816927E+00 3.038466871E-01
 2.152744055E+00 3.323608935E-01
 2.291639090E+00 3.594974875E-01
 2.432604074E+00 3.854185939E-01
 2.575731993E+00 4.102610052E-01
 2.721112013E+00 4.341414869E-01
 2.868818045E+00 4.571605027E-01
 3.018912077E+00 4.794045091E-01
 3.171442032E+00 5.009492040E-01
 3.326436996E+00 5.218604803E-01
 3.483900070E+00 5.421969295E-01
 3.643815994E+00 5.620095730E-01
 3.806138992E+00 5.813443065E-01
 3.970792055E+00 6.002417803E-01
 4.137668133E+00 6.187384725E-01
 4.306628227E+00 6.368672252E-01
 4.477499008E+00 6.546574235E-01
 4.650075912E+00 6.721357107E-01
 4.824128151E+00 6.893262267E-01
 4.999399185E+00 7.062509060E-01
 5.175611019E+00 7.229297161E-01
 5.352470875E+00 7.393807173E-01
 5.529685974E+00 7.556204796E-01
 5.706954956E+00 7.716646194E-01
 5.883988857E+00 7.875266075E-01
 6.060505867E+00 8.032196164E-01
 6.236244202E+00 8.187552094E-01
 6.410963058E+00 8.341444135E-01
 6.584443092E+00 8.493971229E-01
 6.756494999E+00 8.645225763E-01
 6.926950932E+00 8.795294762E-01
 7.095673084E+00 8.944256902E-01
 7.262547016E+00 9.092184901E-01
 7.427484989E+00 9.239147902E-01
 7.590415001E+00 9.385209084E-01
 7.751511097E+00 9.530426264E-01
 7.910975933E+00 9.674854279E-01
 8.068785667E+00 9.818543196E-01
 8.224877357E+00 9.961541295E-01
 8.379183769E+00 1.010388970E+00
 8.531646729E+00 1.024564028E+00
 8.682221413E+00 1.038681984E+00
 8.830868721E+00 1.052746058E+00
 8.977556229E+00 1.066761017E+00
 9.122266769E+00 1.080729008E+00
 9.264984131E+00 1.094653010E+00
 9.405703545E+00 1.108536005E+00
 9.544422150E+00 1.122380972E+00
 9.681147575E+00 1.136188984E+00
 9.815894127E+00 1.149963021E+00
 9.948676109E+00 1.163705945E+00
 1.007950974E+01 1.177418947E+00
 1.020843029E+01 1.191102982E+00
 1.033545971E+01 1.204761028E+00
 1.046061993E+01 1.218394995E+00
 1.058393955E+01 1.232005000E+00
 1.070545006E+01 1.245592952E+00
 1.082520008E+01 1.259160995E+00
 1.094320011E+01 1.272709966E+00
 1.105949020E+01 1.286239982E+00
 1.117411041E+01 1.299754024E+00
 1.128709984E+01 1.313251019E+00
 1.139853001E+01 1.326732993E+00
 1.150850010E+01 1.340201974E+00
 1.161719036E+01 1.353657007E+00
 1.172471046E+01 1.367100000E+00
 1.183108997E+01 1.380530000E+00
 1.193638039E+01 1.393949986E+00
 1.204059029E+01 1.407359958E+00
 1.214377975E+01 1.420758963E+00
 1.224596024E+01 1.434149981E+00
 1.234718037E+01 1.447532058E+00
 1.244744968E+01 1.460906029E+00
 1.254681015E+01 1.474272013E+00
 1.264529037E+01 1.487630963E+00
 1.274291992E+01 1.500983953E+00
 1.283971977E+01 1.514330029E+00
 1.293570995E+01 1.527670026E+00
 1.303092957E+01 1.541005015E+00
 1.312539005E+01 1.554334044E+00
 1.321912003E+01 1.567657948E+00
 1.331215000E+01 1.580978036E+00
 1.340449047E+01 1.594292998E+00
 1.349617004E+01 1.607604027E+00
 1.358720016E+01 1.620911956E+00
 1.367761040E+01 1.634214997E+00
 1.376741028E+01 1.647516012E+00
 1.385663033E+01 1.660812020E+00
 1.394528008E+01 1.674106956E+00
 1.403337002E+01 1.687397957E+00
 1.412094021E+01 1.700685978E+00
 1.420798969E+01 1.713971972E+00
 1.429454041E+01 1.727255940E+00
 1.438059998E+01 1.740537047E+00
 1.446619034E+01 1.753816009E+00
 1.455132961E+01 1.767094016E+00
 1.463601971E+01 1.780369043E+00
 1.472029018E+01 1.793642998E+00
 1.480414963E+01 1.806915045E+00
 1.488759995E+01 1.820184946E+00
 1.497066021E+01 1.833454013E+00
 1.505335045E+01 1.846722007E+00
 1.513568020E+01 1.859987974E+00
 1.521765995E+01 1.873252988E+00
 1.529928970E+01 1.886517048E+00
 1.538059998E+01 1.899780035E+00
 1.546158981E+01 1.913041949E+00
 1.554226971E+01 1.926303029E+00
 1.562265015E+01 1.939563036E+00
 1.570275021E+01 1.952821970E+00
 1.578258038E+01 1.966081023E+00
 1.586213017E+01 1.979338050E+00
 1.594143009E+01 1.992594957E+00
 1.602049065E+01 2.005851984E+00
 1.609930992E+01 2.019108057E+00
 1.617790031E+01 2.032362938E+00
 1.625628090E+01 2.045617104E+00
 1.633444023E+01 2.058871031E+00
 1.641241074E+01 2.072124958E+00
 1.649017906E+01 2.085377932E+00
 1.656777000E+01 2.098630905E+00
 1.664520073E+01 2.111882925E+00
 1.672245026E+01 2.125134945E+00
 1.679954910E+01 2.138386011E+00
 1.687649918E+01 2.151638031E+00
 1.695331955E+01 2.164889097E+00
 1.703000069E+01 2.178138971E+00
 1.710655975E+01 2.191390038E+00
 1.718301010E+01 2.204639912E+00
 1.725935936E+01 2.217890024E+00
 1.733560944E+01 2.231138945E+00
 1.741177940E+01 2.244389057E+00
 1.748786926E+01 2.257637978E+00
 1.756389999E+01 2.270886898E+00
 1.763986015E+01 2.284136057E+00
 1.771577072E+01 2.297384024E+00
 1.779165077E+01 2.310632944E+00
 1.786749077E+01 2.323880911E+00
 1.794330978E+01 2.337129116E+00
 1.801911926E+01 2.350377083E+00
 1.809493065E+01 2.363625050E+00
 1.817074966E+01 2.376873016E+00
 1.824658966E+01 2.390120983E+00
 1.832246017E+01 2.403367996E+00
 1.839837074E+01 2.416615963E+00
 1.847433090E+01 2.429862976E+00
 1.855035973E+01 2.443109989E+00
 1.862647057E+01 2.456357002E+00
 1.870265961E+01 2.469604015E+00
 1.877895927E+01 2.482851982E+00
 1.885536957E+01 2.496098995E+00
 1.893191910E+01 2.509346008E+00
 1.900860023E+01 2.522593021E+00
 1.908543968E+01 2.535839081E+00
 1.916246033E+01 2.549086094E+00
 1.923966980E+01 2.562333107E+00
 1.931707954E+01 2.575578928E+00
 1.939472008E+01 2.588825941E+00
 1.947260094E+01 2.602072001E+00
 1.955072975E+01 2.615319014E+00
 1.962915993E+01 2.628566027E+00
 1.970788002E+01 2.641812086E+00
 1.978692055E+01 2.655057907E+00
 1.986631012E+01 2.668304920E+00
 1.994606972E+01 2.681550980E+00
 2.002622032E+01 2.694797993E+00
 2.010680008E+01 2.708044052E+00
 2.018782043E+01 2.721290112E+00
 2.026931953E+01 2.734535933E+00
 2.035132980E+01 2.747782946E+00
 2.043387985E+01 2.761029005E+00
 2.051700020E+01 2.774275064E+00
 2.060074043E+01 2.787520885E+00
 2.068511963E+01 2.800766945E+00
 2.077018929E+01 2.814013004E+00
 2.085598946E+01 2.827260017E+00
 2.094256973E+01 2.840506077E+00
 2.102996063E+01 2.853751898E+00
 2.111827087E+01 2.866997957E+00
 2.120766068E+01 2.880244017E+00
 2.129834938E+01 2.893490076E+00
 2.139045906E+01 2.906735897E+00
 2.148410034E+01 2.919981956E+00
 2.157932091E+01 2.933228016E+00
 2.167617035E+01 2.946474075E+00
 2.177471924E+01 2.959719896E+00
 2.187500954E+01 2.972965956E+00
 2.197715950E+01 2.986212015E+00
 2.208127022E+01 2.999458075E+00
 2.218750000E+01 3.012703896E+00
 2.229604912E+01 3.025949955E+00
 2.240712929E+01 3.039196014E+00
 2.252099991E+01 3.052442074E+00
 2.263788986E+01 3.065687895E+00
 2.275801086E+01 3.078933954E+00
 2.288147926E+01 3.092180014E+00
 2.300823021E+01 3.105426073E+00
 2.313788033E+01 3.118671894E+00
 2.326963043E+01 3.131917953E+00
 2.340209007E+01 3.145164013E+00
 2.353326035E+01 3.158410072E+00
 2.366105080E+01 3.171655893E+00
 2.378428078E+01 3.184901953E+00
 2.390461922E+01 3.198148012E+00
 2.402466011E+01 3.211394072E+00
 2.414505959E+01 3.224639893E+00
 2.426526070E+01 3.237885952E+00
 2.438423920E+01 3.251132011E+00
 2.450008965E+01 3.264378071E+00
 2.460861969E+01 3.277622938E+00
 2.469989967E+01 3.290868998E+00
 2.475628090E+01 3.304115057E+00
 2.477470970E+01 3.317361116E+00
 2.477636909E+01 3.330606937E+00
 2.477592087E+01 3.343852997E+00
 2.477585030E+01 3.357099056E+00
 2.477586937E+01 3.370345116E+00
 2.477586937E+01 3.383590937E+00
 2.477586937E+01 3.396836996E+00
 2.477586937E+01 3.410083055E+00
 2.477586937E+01 3.423329115E+00
 2.477588081E+01 3.436573982E+00
 2.477586937E+01 3.449820042E+00
 2.477586937E+01 3.463066101E+00
 2.477586937E+01 3.476311922E+00
 2.477586937E+01 3.489557981E+00
 2.477586937E+01 3.502804041E+00
 2.477585983E+01 3.516050100E+00
 2.477585983E+01 3.529295921E+00
 2.477585030E+01 3.542541981E+00
 2.477585030E+01 3.555788040E+00
 2.477584076E+01 3.569034100E+00
 2.477584076E+01 3.582278967E+00
 2.477582932E+01 3.595525026E+00
 2.477581978E+01 3.608771086E+00
 2.477581024E+01 3.622016907E+00
 2.477581024E+01 3.635262966E+00
 2.477580070E+01 3.648509026E+00
 2.477578926E+01 3.661755085E+00
 2.477577972E+01 3.675000906E+00
 2.477577019E+01 3.688246965E+00
 2.477574921E+01 3.701493025E+00
 2.477573967E+01 3.714739084E+00
 2.477573013E+01 3.727983952E+00
 2.477572060E+01 3.741230011E+00
 2.477570915E+01 3.754476070E+00
 2.477569008E+01 3.767721891E+00
 2.477566910E+01 3.780967951E+00
 2.477565956E+01 3.794214010E+00
 2.477565002E+01 3.807460070E+00
 2.477563095E+01 3.820705891E+00
 2.477560997E+01 3.833951950E+00
 2.477559090E+01 3.847198009E+00
 2.477557945E+01 3.860443115E+00
 2.477556038E+01 3.873688936E+00
 2.477553940E+01 3.886934996E+00
 2.477552032E+01 3.900181055E+00
 2.477549934E+01 3.913427114E+00
 2.477547073E+01 3.926672935E+00
 2.477544975E+01 3.939918995E+00
 2.477543068E+01 3.953165054E+00
 2.477540970E+01 3.966411114E+00
 2.477537918E+01 3.979655981E+00
 2.477535057E+01 3.992902040E+00
 2.477532959E+01 4.006147861E+00
 2.477529907E+01 4.019393921E+00
 2.477527046E+01 4.032639980E+00
 2.477523994E+01 4.045886040E+00
 2.477520943E+01 4.059132099E+00
 2.477518082E+01 4.072378159E+00
 2.477514076E+01 4.085624218E+00
 2.477511024E+01 4.098868847E+00
 2.477507019E+01 4.112114906E+00
 2.477503014E+01 4.125360966E+00
 2.477499008E+01 4.138607025E+00
 2.477495003E+01 4.151853085E+00
 2.477490997E+01 4.165099144E+00
 2.477486038E+01 4.178345203E+00
 2.477482033E+01 4.191590786E+00
 2.477477074E+01 4.204836845E+00
 2.477471924E+01 4.218081951E+00
 2.477466965E+01 4.231328011E+00
 2.477461052E+01 4.244575024E+00
 2.477454948E+01 4.257820129E+00
 2.477449036E+01 4.271066189E+00
 2.477442932E+01 4.284311771E+00
 2.477436066E+01 4.297557831E+00
 2.477429962E+01 4.310803890E+00
 2.477422905E+01 4.324049950E+00
 2.477415085E+01 4.337296009E+00
 2.477407074E+01 4.350542068E+00
 2.477399063E+01 4.363788128E+00
 2.477391052E+01 4.377033234E+00
 2.477382088E+01 4.390278816E+00
 2.477371979E+01 4.403524876E+00
 2.477362061E+01 4.416770935E+00
 2.477351952E+01 4.430016994E+00
 2.477341080E+01 4.443263054E+00
 2.477330017E+01 4.456509113E+00
 2.477318001E+01 4.469755173E+00
 2.477305984E+01 4.483001232E+00
 2.477292061E+01 4.496245861E+00
 2.477277946E+01 4.509491920E+00
 2.477264023E+01 4.522737980E+00
 2.477248001E+01 4.535984039E+00
 2.477231026E+01 4.549230099E+00
 2.477214050E+01 4.562476158E+00
 2.477194977E+01 4.575722218E+00
 2.477174950E+01 4.588967800E+00
 2.477153969E+01 4.602213860E+00
 2.477131081E+01 4.615458965E+00
 2.477107048E+01 4.628705978E+00
 2.477080917E+01 4.641952038E+00
 2.477053070E+01 4.655197144E+00
 2.477024078E+01 4.668443203E+00
 2.476991081E+01 4.681688786E+00
 2.476955986E+01 4.694934845E+00
 2.476918030E+01 4.708180904E+00
 2.476876068E+01 4.721426964E+00
 2.476829910E+01 4.734673023E+00
 2.476778984E+01 4.747919083E+00
 2.476721954E+01 4.761164188E+00
 2.476658058E+01 4.774409771E+00
 2.476586914E+01 4.787655830E+00
 2.476503944E+01 4.800901890E+00
 2.476404953E+01 4.814147949E+00
 2.476295090E+01 4.827394009E+00
 2.476177979E+01 4.840640068E+00
 2.476016045E+01 4.853886127E+00
 2.475712013E+01 4.867132187E+00
 2.475233078E+01 4.880376816E+00
 2.474834061E+01 4.893622875E+00
 2.475103951E+01 4.906868935E+00
 2.476515007E+01 4.920114994E+00
 2.478827095E+01 4.933361053E+00
 2.481086922E+01 4.946607113E+00
 2.482402039E+01 4.959853172E+00
 2.482629967E+01 4.973099232E+00
 2.482282066E+01 4.986344814E+00
 2.481929970E+01 4.999589920E+00
 2.481802940E+01 5.012835979E+00
 2.481831932E+01 5.026082993E+00
 2.481884003E+01 5.039328098E+00
 2.481903076E+01 5.052574158E+00
 2.481900024E+01 5.065820217E+00
 2.481893921E+01 5.079065800E+00
 2.481892967E+01 5.092311859E+00
 2.481892967E+01 5.105557919E+00
 2.481892967E+01 5.118803978E+00
 2.481892967E+01 5.132050037E+00
 2.481892967E+01 5.145296097E+00
 2.481892967E+01 5.158541203E+00
 2.481892967E+01 5.171786785E+00
 2.481892967E+01 5.185032845E+00
 2.481892967E+01 5.198278904E+00
 2.481892967E+01 5.211524963E+00
 2.481892967E+01 5.224771023E+00
 2.481892967E+01 5.238017082E+00
 2.481892967E+01 5.251263142E+00
 2.481892967E+01 5.264507771E+00
 2.481892967E+01 5.277753830E+00
 2.481892967E+01 5.290999889E+00
 2.481892967E+01 5.304245949E+00
 2.481892967E+01 5.317492008E+00
 2.481892967E+01 5.330738068E+00
 2.481892967E+01 5.343984127E+00
 2.481892967E+01 5.357230186E+00
 2.481892967E+01 5.370475769E+00
 2.481893921E+01 5.383720875E+00
ZONE T="ZONE 001"
 STRANDID=0, SOLUTIONTIME=0
 I=384, J=1, K=1, ZONETYPE=Ordered
 DATAPACKING=POINT
 DT=(SINGLE SINGLE SINGLE )
 PASSIVEVARLIST=[3]
 1.945865005E-01 -7.108873725E-01
 3.866888881E-01 -4.096553922E-01
 5.766322017E-01 -2.332275957E-01
 7.647194266E-01 -1.078179032E-01
 9.512335062E-01 -1.030268986E-02
 1.136440992E+00 6.961779296E-02
 1.320590973E+00 1.374375969E-01
 1.503919005E+00 1.964361072E-01
 1.686645985E+00 2.487280965E-01
 1.868981957E+00 2.957578897E-01
 2.051119089E+00 3.385548890E-01
 2.233239889E+00 3.778795004E-01
 2.415513992E+00 4.143089056E-01
 2.598094940E+00 4.482913017E-01
 2.781124115E+00 4.801821113E-01
 2.964728117E+00 5.102676749E-01
 3.149015903E+00 5.387820005E-01
 3.334083080E+00 5.659186244E-01
 3.520008087E+00 5.918396115E-01
 3.706849098E+00 6.166821122E-01
 3.894646883E+00 6.405625939E-01
 4.083425999E+00 6.635816097E-01
 4.273187160E+00 6.858255267E-01
 4.463919163E+00 7.073702812E-01
 4.655582905E+00 7.282816172E-01
 4.848132133E+00 7.486178875E-01
 5.041492939E+00 7.684305906E-01
 5.235586166E+00 7.877653837E-01
 5.430308819E+00 8.066629171E-01
 5.625555992E+00 8.251596093E-01
 5.821210861E+00 8.432883024E-01
 6.017144203E+00 8.610785007E-01
 6.213230133E+00 8.785567880E-01
 6.409336090E+00 8.957473040E-01
 6.605329990E+00 9.126719236E-01
 6.801085949E+00 9.293506742E-01
 6.996477127E+00 9.458016753E-01
 7.191388130E+00 9.620416760E-01
 7.385704994E+00 9.780855775E-01
 7.579322815E+00 9.939476848E-01
 7.772150040E+00 1.009641051E+00
 7.964097977E+00 1.025176048E+00
 8.155091286E+00 1.040565014E+00
 8.345060349E+00 1.055817962E+00
 8.533946991E+00 1.070943952E+00
 8.721697807E+00 1.085950971E+00
 8.908273697E+00 1.100847006E+00
 9.093637466E+00 1.115640044E+00
 9.277755737E+00 1.130336046E+00
 9.460612297E+00 1.144942045E+00
 9.642188072E+00 1.159464002E+00
 9.822468758E+00 1.173905969E+00
 1.000144958E+01 1.188274980E+00
 1.017912960E+01 1.202574968E+00
 1.035550976E+01 1.216809988E+00
 1.053059006E+01 1.230985045E+00
 1.070436954E+01 1.245103002E+00
 1.087687969E+01 1.259166956E+00
 1.104815006E+01 1.273182034E+00
 1.121829987E+01 1.287150025E+00
 1.138741016E+01 1.301074028E+00
 1.155550003E+01 1.314957023E+00
 1.172255039E+01 1.328801990E+00
 1.188854980E+01 1.342610002E+00
 1.205348015E+01 1.356384993E+00
 1.221732998E+01 1.370126963E+00
 1.238010025E+01 1.383839965E+00
 1.254178047E+01 1.397523999E+00
 1.270236015E+01 1.411182046E+00
 1.286182976E+01 1.424816012E+00
 1.302019978E+01 1.438426018E+00
 1.317745018E+01 1.452013969E+00
 1.333360004E+01 1.465582013E+00
 1.348863983E+01 1.479130983E+00
 1.364258003E+01 1.492660999E+00
 1.379541016E+01 1.506175041E+00
 1.394713020E+01 1.519672036E+00
 1.409776020E+01 1.533154964E+00
 1.424730015E+01 1.546622992E+00
 1.439573956E+01 1.560078025E+00
 1.454310036E+01 1.573521018E+00
 1.468937016E+01 1.586951017E+00
 1.483456993E+01 1.600371003E+00
 1.497871017E+01 1.613780975E+00
 1.512180042E+01 1.627181053E+00
 1.526389027E+01 1.640570998E+00
 1.540509033E+01 1.653952956E+00
 1.554545975E+01 1.667327046E+00
 1.568502045E+01 1.680693030E+00
 1.582380009E+01 1.694051981E+00
 1.596179962E+01 1.707404971E+00
 1.609903908E+01 1.720751047E+00
 1.623554039E+01 1.734091043E+00
 1.637130928E+01 1.747426033E+00
 1.650637054E+01 1.760754943E+00
 1.664072037E+01 1.774078965E+00
 1.677438927E+01 1.787399054E+00
 1.690737915E+01 1.800714016E+00
 1.703972054E+01 1.814025044E+00
 1.717141914E+01 1.827332973E+00
 1.730248070E+01 1.840636015E+00
 1.743292999E+01 1.853937030E+00
 1.756278038E+01 1.867233992E+00
 1.769202995E+01 1.880527973E+00
 1.782070923E+01 1.893818974E+00
 1.794882011E+01 1.907106996E+00
 1.807637024E+01 1.920392990E+00
 1.820338058E+01 1.933676958E+00
 1.832987022E+01 1.946957946E+00
 1.845583916E+01 1.960237026E+00
 1.858130074E+01 1.973515034E+00
 1.870627022E+01 1.986789942E+00
 1.883074951E+01 2.000063896E+00
 1.895475960E+01 2.013335943E+00
 1.907831001E+01 2.026606083E+00
 1.920141029E+01 2.039875031E+00
 1.932406998E+01 2.053143024E+00
 1.944628906E+01 2.066409111E+00
 1.956809998E+01 2.079674006E+00
 1.968950081E+01 2.092937946E+00
 1.981049919E+01 2.106200933E+00
 1.993111038E+01 2.119462967E+00
 2.005134010E+01 2.132724047E+00
 2.017119026E+01 2.145983934E+00
 2.029068947E+01 2.159243107E+00
 2.040983009E+01 2.172502041E+00
 2.052862930E+01 2.185760021E+00
 2.064709091E+01 2.199017048E+00
 2.076523018E+01 2.212272882E+00
 2.088305092E+01 2.225528002E+00
 2.100057030E+01 2.238784075E+00
 2.111779022E+01 2.252038002E+00
 2.123472023E+01 2.265291929E+00
 2.135136032E+01 2.278546095E+00
 2.146772957E+01 2.291799068E+00
 2.158383942E+01 2.305052042E+00
 2.169968987E+01 2.318304062E+00
 2.181529045E+01 2.331556082E+00
 2.193065071E+01 2.344808102E+00
 2.204578018E+01 2.358058929E+00
 2.216069031E+01 2.371309996E+00
 2.227537918E+01 2.384560108E+00
 2.238986969E+01 2.397810936E+00
 2.250415039E+01 2.411061049E+00
 2.261825943E+01 2.424310923E+00
 2.273217010E+01 2.437560081E+00
 2.284592056E+01 2.450809956E+00
 2.295949936E+01 2.464059114E+00
 2.307292938E+01 2.477308035E+00
 2.318619919E+01 2.490556955E+00
 2.329935074E+01 2.503804922E+00
 2.341235924E+01 2.517054081E+00
 2.352524948E+01 2.530302048E+00
 2.363802910E+01 2.543550014E+00
 2.375070953E+01 2.556797981E+00
 2.386329079E+01 2.570045948E+00
 2.397579956E+01 2.583293915E+00
 2.408823013E+01 2.596541882E+00
 2.420059967E+01 2.609788895E+00
 2.431291008E+01 2.623037100E+00
 2.442518997E+01 2.636284113E+00
 2.453742981E+01 2.649530888E+00
 2.464965057E+01 2.662779093E+00
 2.476185989E+01 2.676026106E+00
 2.487408066E+01 2.689273119E+00
 2.498630905E+01 2.702519894E+00
 2.509856987E+01 2.715766907E+00
 2.521087074E+01 2.729012966E+00
 2.532321930E+01 2.742259979E+00
 2.543563080E+01 2.755506992E+00
 2.554813004E+01 2.768754005E+00
 2.566073036E+01 2.782001019E+00
 2.577342987E+01 2.795247078E+00
 2.588625908E+01 2.808494091E+00
 2.599922943E+01 2.821739912E+00
 2.611236954E+01 2.834986925E+00
 2.622567940E+01 2.848232985E+00
 2.633918953E+01 2.861479998E+00
 2.645290947E+01 2.874726057E+00
 2.656686020E+01 2.887972116E+00
 2.668107986E+01 2.901218891E+00
 2.679557037E+01 2.914464951E+00
 2.691036034E+01 2.927711010E+00
 2.702547073E+01 2.940958023E+00
 2.714093971E+01 2.954204082E+00
 2.725678062E+01 2.967449903E+00
 2.737302971E+01 2.980695963E+00
 2.748970985E+01 2.993942022E+00
 2.760684967E+01 3.007189035E+00
 2.772447968E+01 3.020435095E+00
 2.784263992E+01 3.033680916E+00
 2.796137047E+01 3.046926975E+00
 2.808069992E+01 3.060173035E+00
 2.820066071E+01 3.073419094E+00
 2.832131004E+01 3.086664915E+00
 2.844267082E+01 3.099910975E+00
 2.856480980E+01 3.113157034E+00
 2.868779945E+01 3.126403093E+00
 2.881183052E+01 3.139648914E+00
 2.893709946E+01 3.152894974E+00
 2.906373024E+01 3.166141987E+00
 2.919181061E+01 3.179388046E+00
 2.932138062E+01 3.192632914E+00
 2.945244980E+01 3.205878973E+00
 2.958506012E+01 3.219125986E+00
 2.971920967E+01 3.232372046E+00
 2.985494041E+01 3.245616913E+00
 2.999230003E+01 3.258862972E+00
 3.013137054E+01 3.272109985E+00
 3.027223015E+01 3.285355091E+00
 3.041501045E+01 3.298600912E+00
 3.055987930E+01 3.311846972E+00
 3.070701027E+01 3.325093031E+00
 3.085664940E+01 3.338339090E+00
 3.100902939E+01 3.351584911E+00
 3.116441917E+01 3.364830971E+00
 3.132304955E+01 3.378077030E+00
 3.148510933E+01 3.391323090E+00
 3.165061951E+01 3.404568911E+00
 3.181934929E+01 3.417814970E+00
 3.199068069E+01 3.431061029E+00
 3.216344833E+01 3.444307089E+00
 3.233583832E+01 3.457552910E+00
 3.250564957E+01 3.470798969E+00
 3.267111969E+01 3.484045029E+00
 3.283219910E+01 3.497291088E+00
 3.299143982E+01 3.510535955E+00
 3.315084839E+01 3.523782015E+00
 3.331005096E+01 3.537028074E+00
 3.346818161E+01 3.550273895E+00
 3.362392044E+01 3.563519955E+00
 3.377502060E+01 3.576766014E+00
 3.391733170E+01 3.590012074E+00
 3.404290009E+01 3.603257895E+00
 3.413780975E+01 3.616503954E+00
 3.418935013E+01 3.629750013E+00
 3.420497894E+01 3.642996073E+00
 3.420608902E+01 3.656240940E+00
 3.420539093E+01 3.669487000E+00
 3.420523071E+01 3.682733059E+00
 3.420523071E+01 3.695979118E+00
 3.420523071E+01 3.709224939E+00
 3.420521164E+01 3.722470999E+00
 3.420520020E+01 3.735717058E+00
 3.420518112E+01 3.748963118E+00
 3.420516968E+01 3.762208939E+00
 3.420515060E+01 3.775454998E+00
 3.420513153E+01 3.788701057E+00
 3.420512009E+01 3.801945925E+00
 3.420510101E+01 3.815191984E+00
 3.420507812E+01 3.828438044E+00
 3.420505905E+01 3.841684103E+00
 3.420505142E+01 3.854929924E+00
 3.420502853E+01 3.868175983E+00
 3.420500946E+01 3.881422043E+00
 3.420499039E+01 3.894668102E+00
 3.420495987E+01 3.907913923E+00
 3.420494080E+01 3.921159983E+00
 3.420492172E+01 3.934406042E+00
 3.420489883E+01 3.947650909E+00
 3.420486832E+01 3.960896969E+00
 3.420484924E+01 3.974143028E+00
 3.420481873E+01 3.987389088E+00
 3.420479965E+01 4.000635147E+00
 3.420476913E+01 4.013881207E+00
 3.420473099E+01 4.027126789E+00
 3.420470047E+01 4.040372849E+00
 3.420466995E+01 4.053617954E+00
 3.420463181E+01 4.066864014E+00
 3.420458984E+01 4.080111027E+00
 3.420455933E+01 4.093356133E+00
 3.420452118E+01 4.106602192E+00
 3.420447922E+01 4.119847775E+00
 3.420442963E+01 4.133093834E+00
 3.420439148E+01 4.146339893E+00
 3.420434189E+01 4.159585953E+00
 3.420428085E+01 4.172832012E+00
 3.420423889E+01 4.186078072E+00
 3.420417023E+01 4.199323177E+00
 3.420412064E+01 4.212569237E+00
 3.420405960E+01 4.225814819E+00
 3.420399857E+01 4.239060879E+00
 3.420392990E+01 4.252306938E+00
 3.420386124E+01 4.265552998E+00
 3.420378876E+01 4.278799057E+00
 3.420370102E+01 4.292045116E+00
 3.420362091E+01 4.305291176E+00
 3.420354080E+01 4.318535805E+00
 3.420344925E+01 4.331781864E+00
 3.420335007E+01 4.345027924E+00
 3.420325089E+01 4.358273983E+00
 3.420314026E+01 4.371520042E+00
 3.420302963E+01 4.384766102E+00
 3.420291138E+01 4.398012161E+00
 3.420278931E+01 4.411258221E+00
 3.420264816E+01 4.424503803E+00
 3.420251083E+01 4.437748909E+00
 3.420235062E+01 4.450994968E+00
 3.420219040E+01 4.464241982E+00
 3.420201111E+01 4.477487087E+00
 3.420182037E+01 4.490733147E+00
 3.420162964E+01 4.503979206E+00
 3.420140076E+01 4.517224789E+00
 3.420117188E+01 4.530470848E+00
 3.420090866E+01 4.543716908E+00
 3.420063019E+01 4.556962013E+00
 3.420032883E+01 4.570209026E+00
 3.419998932E+01 4.583455086E+00
 3.419961166E+01 4.596700191E+00
 3.419919968E+01 4.609945774E+00
 3.419873047E+01 4.623191833E+00
 3.419820023E+01 4.636437893E+00
 3.419757843E+01 4.649683952E+00
 3.419686890E+01 4.662930012E+00
 3.419612885E+01 4.676176071E+00
 3.419527817E+01 4.689422131E+00
 3.419372177E+01 4.702668190E+00
 3.419086838E+01 4.715912819E+00
 3.418782043E+01 4.729158878E+00
 3.418856812E+01 4.742404938E+00
 3.419763184E+01 4.755650997E+00
 3.421455002E+01 4.768897057E+00
 3.423215866E+01 4.782143116E+00
 3.424271011E+01 4.795389175E+00
 3.424470901E+01 4.808635235E+00
 3.424219131E+01 4.821880817E+00
 3.423963165E+01 4.835125923E+00
 3.423873138E+01 4.848371983E+00
 3.423894882E+01 4.861618042E+00
 3.423931122E+01 4.874864101E+00
 3.423944092E+01 4.888110161E+00
 3.423942184E+01 4.901356220E+00
 3.423937988E+01 4.914601803E+00
 3.423936081E+01 4.927847862E+00
 3.423936844E+01 4.941092968E+00
 3.423937988E+01 4.954339981E+00
 3.423937988E+01 4.967586040E+00
 3.423937988E+01 4.980831146E+00
 3.423937988E+01 4.994077206E+00
 3.423937988E+01 5.007322788E+00
 3.423937988E+01 5.020568848E+00
 3.423937988E+01 5.033814907E+00
 3.423937988E+01 5.047060966E+00
 3.423937988E+01 5.060307026E+00
 3.423937988E+01 5.073553085E+00
 3.423937988E+01 5.086799145E+00
 3.423937988E+01 5.100043774E+00
 3.423937988E+01 5.113289833E+00
 3.423937988E+01 5.126535892E+00
 3.423937988E+01 5.139781952E+00
 3.423937988E+01 5.153028011E+00
 3.423937988E+01 5.166274071E+00
 3.423937988E+01 5.179520130E+00
 3.423937988E+01 5.192766190E+00
 3.423937988E+01 5.206011772E+00
 3.423937988E+01 5.219256878E+00
 3.423937988E+01 5.232502937E+00
 3.423937988E+01 5.245748997E+00
 3.423937988E+01 5.258995056E+00
 3.423937988E+01 5.272241116E+00
 3.423937988E+01 5.285487175E+00
 3.423937988E+01 5.298733234E+00
 3.423937988E+01 5.311978817E+00
 3.423937988E+01 5.325224876E+00
 3.423937988E+01 5.338469982E+00
 3.423937988E+01 5.351716995E+00
 3.423937988E+01 5.364963055E+00
 3.423937988E+01 5.378208160E+00
 3.423937988E+01 5.391454220E+00
 3.423937988E+01 5.404699802E+00
 3.423937988E+01 5.417945862E+00
 3.423937988E+01 5.431191921E+00
 3.423937988E+01 5.444437981E+00
 3.423937988E+01 5.457684040E+00
 3.423937988E+01 5.470930099E+00
 3.423937988E+01 5.484176159E+00
 3.423937988E+01 5.497420788E+00
 3.423937988E+01 5.510666847E+00
 3.423937988E+01 5.523912907E+00
 3.423937988E+01 5.537158966E+00
 3.423937988E+01 5.550405025E+00
 3.423937988E+01 5.563651085E+00
 3.423937988E+01 5.576897144E+00
 3.423936844E+01 5.590143204E+00
ZONE T="ZONE 001"
 STRANDID=0, SOLUTIONTIME=0
 I=384, J=1, K=1, ZONETYPE=Ordered
 DATAPACKING=POINT
 DT=(SINGLE SINGLE SINGLE )
 PASSIVEVARLIST=[3]
 5.798799917E-02 -1.236662030E+00
 1.159660965E-01 -9.354298711E-01
 1.739888936E-01 -7.590020895E-01
 2.321106046E-01 -6.335924268E-01
 2.903853059E-01 -5.360770822E-01
 3.488675952E-01 -4.561566114E-01
 4.076114893E-01 -3.883368075E-01
 4.666712880E-01 -3.293384016E-01
 5.261015892E-01 -2.770464122E-01
 5.859568715E-01 -2.300166935E-01
 6.462922096E-01 -1.872196048E-01
 7.071624994E-01 -1.478949934E-01
 7.686234117E-01 -1.114656031E-01
 8.307307959E-01 -7.748322189E-02
 8.935409188E-01 -4.559234902E-02
 9.571102262E-01 -1.550677046E-02
 1.021497011E+00 1.300747041E-02
 1.086756945E+00 4.014408961E-02
 1.152951002E+00 6.606514752E-02
 1.220137000E+00 9.090758115E-02
 1.288373947E+00 1.147881001E-01
 1.357723951E+00 1.378071010E-01
 1.428246975E+00 1.600511074E-01
 1.500005007E+00 1.815958023E-01
 1.573061943E+00 2.025071979E-01
 1.647479057E+00 2.228434980E-01
 1.723322034E+00 2.426560968E-01
 1.800655007E+00 2.619909048E-01
 1.879544973E+00 2.808882892E-01
 1.960057020E+00 2.993851006E-01
 2.042258024E+00 3.175137937E-01
 2.126215935E+00 3.353039920E-01
 2.211998940E+00 3.527823091E-01
 2.299674988E+00 3.699727952E-01
 2.389311075E+00 3.868975043E-01
 2.480977058E+00 4.035761952E-01
 2.574738979E+00 4.200272858E-01
 2.670665979E+00 4.362671077E-01
 2.768821955E+00 4.523111880E-01
 2.869271040E+00 4.681732953E-01
 2.972075939E+00 4.838662148E-01
 3.077296019E+00 4.994018078E-01
 3.184984922E+00 5.147910118E-01
 3.295196056E+00 5.300437212E-01
 3.407974005E+00 5.451691747E-01
 3.523359060E+00 5.601760745E-01
 3.641382933E+00 5.750722885E-01
 3.762070894E+00 5.898650885E-01
 3.885437012E+00 6.045613885E-01
 4.011483192E+00 6.191675067E-01
 4.140200138E+00 6.336892247E-01
 4.271565914E+00 6.481319070E-01
 4.405546188E+00 6.625009179E-01
 4.542085171E+00 6.768007278E-01
 4.681118011E+00 6.910359263E-01
 4.822556973E+00 7.052103877E-01
 4.966303825E+00 7.193282247E-01
 5.112239838E+00 7.333927751E-01
 5.260234833E+00 7.474074960E-01
 5.410140038E+00 7.613754869E-01
 5.561797142E+00 7.752997279E-01
 5.715034008E+00 7.891827822E-01
 5.869674206E+00 8.030272722E-01
 6.025529861E+00 8.168355823E-01
 6.182414055E+00 8.306099772E-01
 6.340135098E+00 8.443524837E-01
 6.498503208E+00 8.580651283E-01
 6.657332897E+00 8.717496991E-01
 6.816444874E+00 8.854079247E-01
 6.975667000E+00 8.990412951E-01
 7.134836197E+00 9.126514792E-01
 7.293796062E+00 9.262397885E-01
 7.452410221E+00 9.398077130E-01
 7.610542774E+00 9.533563256E-01
 7.768080235E+00 9.668866992E-01
 7.924914837E+00 9.804000854E-01
 8.080951691E+00 9.938976169E-01
 8.236281395E+00 1.007380009E+00
 8.391039848E+00 1.020848036E+00
 8.545200348E+00 1.034302950E+00
 8.698677063E+00 1.047745943E+00
 8.851374626E+00 1.061177015E+00
 9.003211021E+00 1.074597001E+00
 9.154096603E+00 1.088006020E+00
 9.303960800E+00 1.101405978E+00
 9.452733994E+00 1.114796996E+00
 9.600351334E+00 1.128178954E+00
 9.746756554E+00 1.141553044E+00
 9.891899109E+00 1.154919028E+00
 1.003573990E+01 1.168277979E+00
 1.017823029E+01 1.181630015E+00
 1.031933975E+01 1.194975972E+00
 1.045905018E+01 1.208317041E+00
 1.059733963E+01 1.221650958E+00
 1.073418045E+01 1.234979987E+00
 1.086956024E+01 1.248304963E+00
 1.100347996E+01 1.261623979E+00
 1.113593006E+01 1.274940014E+00
 1.126690960E+01 1.288251042E+00
 1.139641953E+01 1.301558018E+00
 1.152447033E+01 1.314862013E+00
 1.165106010E+01 1.328161955E+00
 1.177620983E+01 1.341459036E+00
 1.189993000E+01 1.354753017E+00
 1.202221966E+01 1.368044019E+00
 1.214311028E+01 1.381332994E+00
 1.226259995E+01 1.394618988E+00
 1.238070965E+01 1.407902002E+00
 1.249746990E+01 1.421183944E+00
 1.261287022E+01 1.434463024E+00
 1.272694969E+01 1.447739959E+00
 1.283973026E+01 1.461014986E+00
 1.295125008E+01 1.474288940E+00
 1.306159973E+01 1.487560987E+00
 1.317090988E+01 1.500831008E+00
 1.327927971E+01 1.514101028E+00
 1.338673973E+01 1.527367949E+00
 1.349328995E+01 1.540634990E+00
 1.359897995E+01 1.553900003E+00
 1.370380020E+01 1.567163944E+00
 1.380778980E+01 1.580427051E+00
 1.391096020E+01 1.593688011E+00
 1.401334000E+01 1.606948972E+00
 1.411493969E+01 1.620210052E+00
 1.421578979E+01 1.633468986E+00