TITLE     = ""
VARIABLES = "retheta"
"cf"
ZONE T="ZONE 001"
 STRANDID=0, SOLUTIONTIME=0
 I=449, J=1, K=1, ZONETYPE=Ordered
 DATAPACKING=POINT
 DT=(SINGLE SINGLE )
 3.481818237E+02 1.232079975E-02
 1.735690765E+02 3.966096323E-03
 2.041276245E+02 3.558495548E-03
 2.345782776E+02 3.646914614E-03
 2.658488770E+02 3.690653248E-03
 2.975535583E+02 3.683353774E-03
 3.289464722E+02 3.653864376E-03
 3.599497070E+02 3.616010537E-03
 3.905582581E+02 3.574951785E-03
 4.001937866E+02 3.533302806E-03
 4.269653625E+02 3.492631717E-03
 4.534132996E+02 3.453734098E-03
 4.795942688E+02 3.416926367E-03
 5.055495300E+02 3.382274183E-03
 5.313234253E+02 3.349682782E-03
 5.569233398E+02 3.318978241E-03
 5.823509521E+02 3.289985703E-03
 6.076157227E+02 3.262569662E-03
 6.327307739E+02 3.236606251E-03
 6.577058716E+02 3.211966483E-03
 6.825642700E+02 3.188528121E-03
 7.072857056E+02 3.166172421E-03
 7.318956909E+02 3.144808812E-03
 7.564046021E+02 3.124372801E-03
 7.808040771E+02 3.104804549E-03
 8.051112061E+02 3.086040728E-03
 8.293376465E+02 3.068023361E-03
 8.534771118E+02 3.050700296E-03
 8.775374756E+02 3.034022870E-03
 9.015250244E+02 3.017937532E-03
 9.254577026E+02 3.002401441E-03
 9.493217773E+02 2.987386426E-03
 9.731158447E+02 2.972869901E-03
 9.968564453E+02 2.958824160E-03
 1.020546021E+03 2.945218002E-03
 1.044199219E+03 2.932020463E-03
 1.067804810E+03 2.919190098E-03
 1.091364624E+03 2.906690119E-03
 1.114877686E+03 2.894492587E-03
 1.138364624E+03 2.882587723E-03
 1.161798218E+03 2.870961325E-03
 1.185213379E+03 2.859597560E-03
 1.208593018E+03 2.848492702E-03
 1.231945801E+03 2.837646520E-03
 1.255260254E+03 2.827049932E-03
 1.278562622E+03 2.816695720E-03
 1.301830322E+03 2.806574805E-03
 1.325098999E+03 2.796677640E-03
 1.348341919E+03 2.786995145E-03
 1.371558594E+03 2.777520567E-03
 1.394761841E+03 2.768245758E-03
 1.417964844E+03 2.759163268E-03
 1.441152344E+03 2.750265179E-03
 1.464323120E+03 2.741544042E-03
 1.487504028E+03 2.732993802E-03
 1.510664673E+03 2.724609105E-03
 1.533826782E+03 2.716380637E-03
 1.556976196E+03 2.708299318E-03
 1.580134521E+03 2.700360259E-03
 1.603283203E+03 2.692562994E-03
 1.626442993E+03 2.684903098E-03
 1.649601929E+03 2.677376848E-03
 1.672771362E+03 2.669979353E-03
 1.695931641E+03 2.662708052E-03
 1.719111938E+03 2.655557822E-03
 1.742296875E+03 2.648526104E-03
 1.765484619E+03 2.641608007E-03
 1.788679199E+03 2.634800505E-03
 1.811898315E+03 2.628100570E-03
 1.834638428E+03 2.621504711E-03
 1.858373535E+03 2.615009435E-03
 1.881127197E+03 2.608611947E-03
 1.904506592E+03 2.602309454E-03
 1.928210938E+03 2.596098231E-03
 1.951073120E+03 2.589976881E-03
 1.974843872E+03 2.583941910E-03
 1.997731689E+03 2.577990759E-03
 2.021206177E+03 2.572120167E-03
 2.044486938E+03 2.566324314E-03
 2.067974365E+03 2.560601104E-03
 2.091548584E+03 2.554951468E-03
 2.114862793E+03 2.549374010E-03
 2.138444580E+03 2.543869661E-03
 2.162119629E+03 2.538433997E-03
 2.185482910E+03 2.533065621E-03
 2.209167725E+03 2.527764766E-03
 2.232948975E+03 2.522528172E-03
 2.256372070E+03 2.517354675E-03
 2.280160400E+03 2.512241947E-03
 2.304053223E+03 2.507189987E-03
 2.327552979E+03 2.502196236E-03
 2.351452148E+03 2.497259527E-03
 2.375460449E+03 2.492377767E-03
 2.399055664E+03 2.487551421E-03
 2.423069580E+03 2.482777694E-03
 2.447194336E+03 2.478054725E-03
 2.470899170E+03 2.473384142E-03
 2.495034668E+03 2.468761755E-03
 2.519279541E+03 2.464187331E-03
 2.543111816E+03 2.459661569E-03
 2.567370117E+03 2.455181442E-03
 2.591744385E+03 2.450745786E-03
 2.615725098E+03 2.446354833E-03
 2.640113525E+03 2.442007419E-03
 2.664612549E+03 2.437700517E-03
 2.689232910E+03 2.433436923E-03
 2.713282227E+03 2.429211978E-03
 2.737915771E+03 2.425021958E-03
 2.762668701E+03 2.420868725E-03
 2.786909912E+03 2.416752279E-03
 2.811681396E+03 2.412671689E-03
 2.836574707E+03 2.408627886E-03
 2.861591553E+03 2.404620638E-03
 2.885939209E+03 2.400647383E-03
 2.910975098E+03 2.396707656E-03
 2.936136475E+03 2.392803552E-03
 2.960719238E+03 2.388931345E-03
 2.985902832E+03 2.385089640E-03
 3.011211914E+03 2.381281694E-03
 3.036653564E+03 2.377505414E-03
 3.061388672E+03 2.373757306E-03
 3.086854736E+03 2.370039932E-03
 3.112451172E+03 2.366353292E-03
 3.137471680E+03 2.362693893E-03
 3.163096191E+03 2.359061502E-03
 3.188849365E+03 2.355457982E-03
 3.214747314E+03 2.351882402E-03
 3.239967529E+03 2.348332433E-03
 3.265889893E+03 2.344807144E-03
 3.291950928E+03 2.341310959E-03
 3.318153076E+03 2.337838290E-03
 3.343603271E+03 2.334388439E-03
 3.369839844E+03 2.330963500E-03
 3.396217285E+03 2.327564405E-03
 3.422740723E+03 2.324187430E-03
 3.448443848E+03 2.320831874E-03
 3.475000000E+03 2.317499835E-03
 3.501705811E+03 2.314192243E-03
 3.528561768E+03 2.310904441E-03
 3.554547119E+03 2.307635732E-03
 3.581438721E+03 2.304390771E-03
 3.608486084E+03 2.301167231E-03
 3.635687500E+03 2.297961619E-03
 3.661979980E+03 2.294775099E-03
 3.689221680E+03 2.291608136E-03
 3.716625732E+03 2.288458170E-03
 3.744189697E+03 2.285322873E-03
 3.770820068E+03 2.282206202E-03
 3.798432617E+03 2.279110486E-03
 3.826201172E+03 2.276031999E-03
 3.854136963E+03 2.272968879E-03
 3.881141113E+03 2.269922988E-03
 3.909123291E+03 2.266896656E-03
 3.937276367E+03 2.263887087E-03
 3.965602783E+03 2.260891488E-03
 3.993005859E+03 2.257912187E-03
 4.021385742E+03 2.254951512E-03
 4.049937744E+03 2.252006205E-03
 4.078666748E+03 2.249073936E-03
 4.107566406E+03 2.246156801E-03
 4.135297363E+03 2.243257128E-03
 4.164260254E+03 2.240371425E-03
 4.193410645E+03 2.237498760E-03
 4.222742188E+03 2.234640066E-03
 4.250937988E+03 2.231796272E-03
 4.280340332E+03 2.228967613E-03
 4.309927246E+03 2.226150595E-03
 4.339708496E+03 2.223345451E-03
 4.368408203E+03 2.220554976E-03
 4.398252930E+03 2.217778703E-03
 4.428296875E+03 2.215014072E-03
 4.458538574E+03 2.212260151E-03
 4.488972656E+03 2.209518570E-03
 4.518103516E+03 2.206791192E-03
 4.548616211E+03 2.204075921E-03
 4.579339355E+03 2.201369498E-03
 4.610268066E+03 2.198674018E-03
 4.639981445E+03 2.195992507E-03
 4.670992188E+03 2.193322871E-03
 4.702218262E+03 2.190661384E-03
 4.733658203E+03 2.188009908E-03
 4.765296875E+03 2.185370075E-03
 4.795526855E+03 2.182742348E-03
 4.827273438E+03 2.180123469E-03
 4.859242676E+03 2.177512506E-03
 4.891437500E+03 2.174912486E-03
 4.922321777E+03 2.172323875E-03
 4.954610840E+03 2.169744112E-03
 4.987136230E+03 2.167172264E-03
 5.019894531E+03 2.164607635E-03
 5.052863770E+03 2.162052784E-03
 5.084354004E+03 2.159505850E-03
 5.117457520E+03 2.156965667E-03
 5.150803711E+03 2.154431306E-03
 5.184391113E+03 2.151906723E-03
 5.216621582E+03 2.149392152E-03
 5.250328613E+03 2.146885730E-03
 5.284285645E+03 2.144385362E-03
 5.318504395E+03 2.141891513E-03
 5.352951172E+03 2.139407909E-03
 5.385879395E+03 2.136933384E-03
 5.420477051E+03 2.134464215E-03
 5.455345703E+03 2.131999936E-03
 5.490473633E+03 2.129544737E-03
 5.524245605E+03 2.127099084E-03
 5.559512207E+03 2.124659019E-03
 5.595062500E+03 2.122223843E-03
 5.630886719E+03 2.119794255E-03
 5.666979004E+03 2.117373981E-03
 5.701540039E+03 2.114961389E-03
 5.737799316E+03 2.112553222E-03
 5.774354492E+03 2.110149013E-03
 5.811199707E+03 2.107752021E-03
 5.848304199E+03 2.105363179E-03
 5.883723145E+03 2.102979692E-03
 5.921033691E+03 2.100599697E-03
 5.958645508E+03 2.098224824E-03
 5.996555176E+03 2.095856937E-03
 6.032982422E+03 2.093496267E-03
 6.071080566E+03 2.091139322E-03
 6.109512695E+03 2.088785172E-03
 6.148259277E+03 2.086436143E-03
 6.187308594E+03 2.084094798E-03
 6.224698730E+03 2.081758576E-03
 6.263967285E+03 2.079424914E-03
 6.303577148E+03 2.077094745E-03
 6.343523926E+03 2.074769931E-03
 6.383770508E+03 2.072450705E-03
 6.422211914E+03 2.070135204E-03
 6.462725098E+03 2.067821566E-03
 6.503600098E+03 2.065512352E-03
 6.544812500E+03 2.063208958E-03
 6.586333984E+03 2.060910221E-03
 6.625901367E+03 2.058613347E-03
 6.667750977E+03 2.056318335E-03
 6.709970703E+03 2.054027747E-03
 6.752540527E+03 2.051743213E-03
 6.793336914E+03 2.049461240E-03
 6.836203125E+03 2.047180198E-03
 6.879458496E+03 2.044901950E-03
 6.923105469E+03 2.042628592E-03
 6.967108887E+03 2.040358027E-03
 7.009177734E+03 2.038086299E-03
 7.053521484E+03 2.035815036E-03
 7.098297363E+03 2.033546334E-03
 7.143462402E+03 2.031282755E-03
 7.188999023E+03 2.029021969E-03
 7.232431152E+03 2.026761649E-03
 7.278372559E+03 2.024502028E-03
 7.324760742E+03 2.022246132E-03
 7.371564941E+03 2.019993961E-03
 7.416435547E+03 2.017742954E-03
 7.463626465E+03 2.015491715E-03
 7.511278320E+03 2.013243036E-03
 7.559391602E+03 2.010997618E-03
 7.607926270E+03 2.008754294E-03
 7.654342773E+03 2.006510971E-03
 7.703328613E+03 2.004267648E-03
 7.752814453E+03 2.002027119E-03
 7.802766113E+03 1.999788452E-03
 7.850811035E+03 1.997550949E-03
 7.901227051E+03 1.995312748E-03
 7.952164062E+03 1.993076177E-03
 8.003612305E+03 1.990840770E-03
 8.055541504E+03 1.988607692E-03
 8.105324707E+03 1.986373449E-03
 8.157787598E+03 1.984138740E-03
 8.210801758E+03 1.981905429E-03
 8.264350586E+03 1.979673980E-03
 8.318387695E+03 1.977442298E-03
 8.370051758E+03 1.975209452E-03
 8.424735352E+03 1.972976374E-03
 8.479995117E+03 1.970744459E-03
 8.535797852E+03 1.968513709E-03
 8.589377930E+03 1.966281328E-03
 8.645819336E+03 1.964047318E-03
 8.702884766E+03 1.961814007E-03
 8.760555664E+03 1.959582092E-03
 8.816183594E+03 1.957348082E-03
 8.874501953E+03 1.955111977E-03
 8.933484375E+03 1.952875755E-03
 8.993118164E+03 1.950639999E-03
 9.053375000E+03 1.948403544E-03
 9.111260742E+03 1.946164994E-03
 9.172286133E+03 1.943924581E-03
 9.234018555E+03 1.941683819E-03
 9.296423828E+03 1.939442358E-03
 9.356613281E+03 1.937198685E-03
 9.419824219E+03 1.934952568E-03
 9.483800781E+03 1.932705520E-03
 9.548500977E+03 1.930457773E-03
 9.613877930E+03 1.928207697E-03
 9.676684570E+03 1.925953780E-03
 9.743035156E+03 1.923697069E-03
 9.810174805E+03 1.921437448E-03
 9.878076172E+03 1.919174334E-03
 9.943463867E+03 1.916908310E-03
 1.001236621E+04 1.914639375E-03
 1.008213086E+04 1.912368927E-03
 1.015270996E+04 1.910096034E-03
 1.022086523E+04 1.907819533E-03
 1.029250684E+04 1.905539655E-03
 1.036508496E+04 1.903257566E-03
 1.043853809E+04 1.900973031E-03
 1.050963086E+04 1.898684306E-03
 1.058423340E+04 1.896391739E-03
 1.065982227E+04 1.894096262E-03
 1.073637109E+04 1.891797874E-03
 1.081059961E+04 1.889495179E-03
 1.088836621E+04 1.887187944E-03
 1.096722656E+04 1.884877565E-03
 1.104709473E+04 1.882563578E-03
 1.112464648E+04 1.880244818E-03
 1.120587207E+04 1.877920935E-03
 1.128821777E+04 1.875593793E-03
 1.137168945E+04 1.873260946E-03
 1.145280664E+04 1.870923792E-03
 1.153776172E+04 1.868580701E-03
 1.162391699E+04 1.866233069E-03
 1.171125684E+04 1.863881364E-03
 1.179618262E+04 1.861523255E-03
 1.188515039E+04 1.859159674E-03
 1.197542676E+04 1.856791321E-03
 1.206697070E+04 1.854417147E-03
 1.215597461E+04 1.852037036E-03
 1.224932324E+04 1.849650173E-03
 1.234408691E+04 1.847258070E-03
 1.244016992E+04 1.844859915E-03
 1.253358105E+04 1.842454192E-03
 1.263169922E+04 1.840042416E-03
 1.273132520E+04 1.837624935E-03
 1.283234375E+04 1.835200121E-03
 1.293052930E+04 1.832767040E-03
 1.303386230E+04 1.830327208E-03
 1.313877637E+04 1.827881089E-03
 1.324129102E+04 1.825426589E-03
 1.334853711E+04 1.822964172E-03
 1.345754102E+04 1.820493955E-03
 1.356821289E+04 1.818016055E-03
 1.367619238E+04 1.815528492E-03
 1.378954883E+04 1.813031035E-03
 1.390476758E+04 1.810523216E-03
 1.401767871E+04 1.808006316E-03
 1.413567773E+04 1.805479755E-03
 1.425572559E+04 1.802943996E-03
 1.437769727E+04 1.800399856E-03
 1.449697461E+04 1.797844423E-03
 1.462217285E+04 1.795280259E-03
 1.474953027E+04 1.792705967E-03
 1.487447852E+04 1.790121198E-03
 1.500520996E+04 1.787525369E-03
 1.513832129E+04 1.784919528E-03
 1.526940039E+04 1.782302046E-03
 1.540611426E+04 1.779673621E-03
 1.554540039E+04 1.777034020E-03
 1.568711230E+04 1.774381381E-03
 1.582626758E+04 1.771722804E-03
 1.596970801E+04 1.769091934E-03
 1.611319922E+04 1.766491914E-03
 1.625168848E+04 1.763922744E-03
 1.639438281E+04 1.761383959E-03
 1.653721289E+04 1.758875558E-03
 1.667523242E+04 1.756396028E-03
 1.681715625E+04 1.753945369E-03
 1.695925586E+04 1.751523116E-03
 1.710132422E+04 1.749128685E-03
 1.723807617E+04 1.746761380E-03
 1.737940234E+04 1.744420617E-03
 1.752086133E+04 1.742106397E-03
 1.765732617E+04 1.739817555E-03
 1.779784180E+04 1.737553277E-03
 1.793855859E+04 1.735314610E-03
 1.807933984E+04 1.733099693E-03
 1.821471484E+04 1.730908174E-03
 1.835461523E+04 1.728740172E-03
 1.849467188E+04 1.726595219E-03
 1.863477344E+04 1.724472269E-03
 1.876923242E+04 1.722370391E-03
 1.890846484E+04 1.720290049E-03
 1.904786523E+04 1.718231244E-03
 1.918729492E+04 1.716193161E-03
 1.932094141E+04 1.714174752E-03
 1.945947852E+04 1.712176600E-03
 1.959818555E+04 1.710197772E-03
 1.973696875E+04 1.708236057E-03
 1.986993750E+04 1.706292271E-03
 2.000776367E+04 1.704367227E-03
 2.014581055E+04 1.702461042E-03
 2.028392578E+04 1.700573019E-03
 2.042194141E+04 1.698702457E-03
 2.055348047E+04 1.696848543E-03
 2.069082227E+04 1.695012907E-03
 2.082825391E+04 1.693193917E-03
 2.096568555E+04 1.691391575E-03
 2.109675781E+04 1.689604949E-03
 2.123332422E+04 1.687834272E-03
 2.137004297E+04 1.686080243E-03
 2.150687305E+04 1.684341696E-03
 2.164361328E+04 1.682617818E-03
 2.177353320E+04 1.680908492E-03
 2.190949219E+04 1.679214882E-03
 2.204560156E+04 1.677535940E-03
 2.218178125E+04 1.675871317E-03
 2.231782031E+04 1.674219733E-03
 2.244677148E+04 1.672582235E-03
 2.258212891E+04 1.670959056E-03
 2.271757031E+04 1.669349615E-03
 2.285311523E+04 1.667753444E-03
 2.298850781E+04 1.666169148E-03
 2.311658398E+04 1.664597890E-03
 2.325125977E+04 1.663040370E-03
 2.338610742E+04 1.661495073E-03
 2.352100391E+04 1.659961883E-03
 2.365577148E+04 1.658440335E-03
 2.378307812E+04 1.656930661E-03
 2.391714258E+04 1.655433443E-03
 2.405130859E+04 1.653948450E-03
 2.418557227E+04 1.652474049E-03
 2.431978125E+04 1.651010709E-03
 2.444647461E+04 1.649558195E-03
 2.457981836E+04 1.648117090E-03
 2.471330469E+04 1.646687626E-03
 2.484690430E+04 1.645268407E-03
 2.498051562E+04 1.643859432E-03
 2.511402148E+04 1.642460236E-03
 2.523947656E+04 1.641071634E-03
 2.537224609E+04 1.639693743E-03
 2.550515234E+04 1.638326095E-03
 2.563816406E+04 1.636967761E-03
 2.577115625E+04 1.635618741E-03
 2.590391992E+04 1.634279266E-03
 2.602834961E+04 1.632949454E-03
 2.616051953E+04 1.631629886E-03
 2.629286719E+04 1.630319166E-03
 2.642524609E+04 1.629017177E-03
 2.655760352E+04 1.627723570E-03
 2.668179492E+04 1.626439160E-03
 2.681323242E+04 1.625163830E-03
 2.694479297E+04 1.623897697E-03
 2.707650781E+04 1.622640062E-03
 2.720829883E+04 1.621390460E-03
 2.734003320E+04 1.620148658E-03
 2.747152539E+04 1.618914888E-03
 2.759419531E+04 1.617689850E-03
 2.772516992E+04 1.616473193E-03
 2.785623828E+04 1.615265268E-03
 2.798736328E+04 1.614063862E-03
 2.811878320E+04 1.612875029E-03
 2.825114062E+04 1.611880143E-03
ZONE T="ZONE 001"
 STRANDID=0, SOLUTIONTIME=0
 I=449, J=1, K=1, ZONETYPE=Ordered
 DATAPACKING=POINT
 DT=(SINGLE SINGLE )
 1.753447266E+02 7.963586599E-03
 2.027719421E+02 3.735702019E-03
 2.277941132E+02 3.807793139E-03
 2.564092712E+02 3.728384152E-03
 2.848776550E+02 3.582937643E-03
 3.116281128E+02 3.456431208E-03
 3.368532104E+02 3.354522400E-03
 3.614187927E+02 3.270373447E-03
 3.855159302E+02 3.198996652E-03
 4.091382446E+02 3.137270920E-03
 4.324729309E+02 3.083095653E-03
 4.555488892E+02 3.034962807E-03
 4.782173157E+02 2.991777146E-03
 5.006113586E+02 2.952706302E-03
 5.228511963E+02 2.917102072E-03
 5.447830811E+02 2.884445945E-03
 5.666047363E+02 2.854329068E-03
 5.882488403E+02 2.826416632E-03
 6.097303467E+02 2.800416434E-03
 6.310634766E+02 2.776102861E-03
 6.522603760E+02 2.753292909E-03
 6.733304443E+02 2.731812885E-03
 6.942812500E+02 2.711514477E-03
 7.151239624E+02 2.692286856E-03
 7.358641357E+02 2.674035728E-03
 7.565118408E+02 2.656667260E-03
 7.770734253E+02 2.640090883E-03
 7.977235107E+02 2.624242799E-03
 8.181140137E+02 2.609071787E-03
 8.384364014E+02 2.594526857E-03
 8.586990356E+02 2.580561209E-03
 8.791195679E+02 2.567125484E-03
 8.992352295E+02 2.554175444E-03
 9.193091431E+02 2.541681984E-03
 9.396170044E+02 2.529619029E-03
 9.595549316E+02 2.517963760E-03
 9.794758301E+02 2.506688703E-03
 9.996782837E+02 2.495770808E-03
 1.019474426E+03 2.485185396E-03
 1.039277344E+03 2.474910347E-03
 1.059363525E+03 2.464926569E-03
 1.079063721E+03 2.455222886E-03
 1.099160278E+03 2.445785562E-03
 1.118758179E+03 2.436602022E-03
 1.138406860E+03 2.427660394E-03
 1.158370483E+03 2.418946708E-03
 1.177947510E+03 2.410450485E-03
 1.197909790E+03 2.402161248E-03
 1.217422729E+03 2.394068055E-03
 1.237385864E+03 2.386158798E-03
 1.256844116E+03 2.378424862E-03
 1.276804077E+03 2.370861825E-03
 1.296223999E+03 2.363464329E-03
 1.316175049E+03 2.356225159E-03
 1.335569092E+03 2.349137329E-03
 1.355507568E+03 2.342194552E-03
 1.374895508E+03 2.335391939E-03
 1.394816406E+03 2.328722971E-03
 1.414211548E+03 2.322182758E-03
 1.434114624E+03 2.315767109E-03
 1.454218750E+03 2.309470670E-03
 1.473414795E+03 2.303288085E-03
 1.493479736E+03 2.297213068E-03
 1.512736694E+03 2.291242592E-03
 1.532756104E+03 2.285374096E-03
 1.552091553E+03 2.279605949E-03
 1.572069092E+03 2.273934195E-03
 1.592262695E+03 2.268355340E-03
 1.611436890E+03 2.262866823E-03
 1.631561279E+03 2.257465618E-03
 1.650875854E+03 2.252148930E-03
 1.670940674E+03 2.246913733E-03
 1.691234741E+03 2.241758397E-03
 1.710420410E+03 2.236679895E-03
 1.730620850E+03 2.231675899E-03
 1.750010620E+03 2.226743614E-03
 1.770140747E+03 2.221881412E-03
 1.790486328E+03 2.217087196E-03
 1.809807373E+03 2.212358871E-03
 1.830055054E+03 2.207692713E-03
 1.850545288E+03 2.203086624E-03
 1.869808960E+03 2.198540373E-03
 1.890176514E+03 2.194053726E-03
 1.910806519E+03 2.189624589E-03
 1.930032349E+03 2.185251331E-03
 1.950515747E+03 2.180933021E-03
 1.971275024E+03 2.176666632E-03
 1.990495728E+03 2.172452165E-03
 2.011088989E+03 2.168288222E-03
 2.031965820E+03 2.164172940E-03
 2.051217041E+03 2.160101430E-03
 2.071912842E+03 2.156070899E-03
 2.092896240E+03 2.152078087E-03
 2.112217529E+03 2.148121595E-03
 2.133007568E+03 2.144199330E-03
 2.154081787E+03 2.140312223E-03
 2.173516113E+03 2.136459807E-03
 2.194394775E+03 2.132641384E-03
 2.215542725E+03 2.128857886E-03
 2.235139404E+03 2.125108149E-03
 2.256098877E+03 2.121391473E-03
 2.277317139E+03 2.117707627E-03
 2.297114746E+03 2.114054281E-03
 2.318154297E+03 2.110433066E-03
 2.339429443E+03 2.106843283E-03
 2.361024902E+03 2.103285166E-03
 2.380585205E+03 2.099757316E-03
 2.401924805E+03 2.096260432E-03
 2.423551270E+03 2.092792885E-03
 2.443427490E+03 2.089354442E-03
 2.464826416E+03 2.085944172E-03
 2.486489502E+03 2.082561841E-03
 2.508484863E+03 2.079207916E-03
 2.528179199E+03 2.075880766E-03
 2.549882080E+03 2.072579693E-03
 2.571879883E+03 2.069304930E-03
 2.592016846E+03 2.066056710E-03
 2.613766357E+03 2.062832937E-03
 2.635778320E+03 2.059634309E-03
 2.658124268E+03 2.056459198E-03
 2.678175781E+03 2.053307602E-03
 2.700223877E+03 2.050180221E-03
 2.722557617E+03 2.047076123E-03
 2.745249756E+03 2.043995075E-03
 2.765245850E+03 2.040935447E-03
 2.787585693E+03 2.037897706E-03
 2.810238525E+03 2.034880919E-03
 2.830878418E+03 2.031885553E-03
 2.853256348E+03 2.028910210E-03
 2.875898926E+03 2.025955357E-03
 2.898870605E+03 2.023019129E-03
 2.919588867E+03 2.020101761E-03
 2.942256836E+03 2.017203253E-03
 2.965199463E+03 2.014323371E-03
 2.988487793E+03 2.011462813E-03
 3.009347168E+03 2.008619951E-03
 3.032299561E+03 2.005795948E-03
 3.055538330E+03 2.002989873E-03
 3.079141846E+03 2.000201494E-03
 3.100180908E+03 1.997429412E-03
 3.123431885E+03 1.994673628E-03
 3.146969238E+03 1.991934609E-03
 3.170875244E+03 1.989212120E-03
 3.192167725E+03 1.986505697E-03
 3.215710205E+03 1.983814873E-03
 3.239555420E+03 1.981139882E-03
 3.263761475E+03 1.978480257E-03
 3.285359131E+03 1.975835767E-03
 3.309211182E+03 1.973205945E-03
 3.333349121E+03 1.970590558E-03
 3.357847656E+03 1.967988908E-03
 3.382791504E+03 1.965400996E-03
 3.403984619E+03 1.962826354E-03
 3.428422852E+03 1.960266149E-03
 3.453222900E+03 1.957719447E-03
 3.478450195E+03 1.955185318E-03
 3.500105469E+03 1.952664461E-03
 3.524855469E+03 1.950156642E-03
 3.549948975E+03 1.947661047E-03
 3.575464600E+03 1.945177908E-03
 3.597648193E+03 1.942707109E-03
 3.622714111E+03 1.940247603E-03
 3.648111816E+03 1.937800203E-03
 3.673919189E+03 1.935362467E-03
 3.696693359E+03 1.932934509E-03
 3.722087158E+03 1.930518192E-03
 3.747794678E+03 1.928112935E-03
 3.773895264E+03 1.925718389E-03
 3.800462646E+03 1.923333970E-03
 3.823049805E+03 1.920960494E-03
 3.849088623E+03 1.918597962E-03
 3.875498291E+03 1.916245441E-03
 3.902355225E+03 1.913902117E-03
 3.925695801E+03 1.911568223E-03
 3.952080322E+03 1.909245620E-03
 3.978810059E+03 1.906931633E-03
 4.005967285E+03 1.904626493E-03
 4.033620117E+03 1.902330550E-03
 4.056864258E+03 1.900043921E-03
 4.083936523E+03 1.897765556E-03
 4.111412109E+03 1.895495807E-03
 4.139358887E+03 1.893234090E-03
 4.163526367E+03 1.890980988E-03
 4.190976074E+03 1.888736850E-03
 4.218789062E+03 1.886500744E-03
 4.247050293E+03 1.884272671E-03
 4.275837402E+03 1.882052165E-03
 4.300023926E+03 1.879839692E-03
 4.328206543E+03 1.877635135E-03
 4.356810547E+03 1.875437913E-03
 4.385905273E+03 1.873247442E-03
 4.411175781E+03 1.871064655E-03
 4.439764160E+03 1.868889551E-03
 4.468742188E+03 1.866720966E-03
 4.498189941E+03 1.864558901E-03
 4.528164062E+03 1.862403355E-03
 4.553577637E+03 1.860255026E-03
 4.582970215E+03 1.858113450E-03
 4.612788574E+03 1.855976763E-03
 4.643117188E+03 1.853846130E-03
 4.674029297E+03 1.851722249E-03
 4.699595215E+03 1.849604887E-03
 4.729837891E+03 1.847492298E-03
 4.760548828E+03 1.845384482E-03
 4.791817383E+03 1.843282604E-03
 4.818730957E+03 1.841186313E-03
 4.849446777E+03 1.839096309E-03
 4.880587402E+03 1.837010379E-03
 4.912251465E+03 1.834930154E-03
 4.944507324E+03 1.832855400E-03
 4.971729492E+03 1.830785652E-03
 5.003361816E+03 1.828720793E-03
 5.035470703E+03 1.826660824E-03
 5.068134766E+03 1.824605512E-03
 5.101451660E+03 1.822555438E-03
 5.129000977E+03 1.820510020E-03
 5.161602539E+03 1.818468212E-03
 5.194745605E+03 1.816431293E-03
 5.228483887E+03 1.814398565E-03
 5.257614258E+03 1.812370610E-03
 5.290798828E+03 1.810346264E-03
 5.324455566E+03 1.808325294E-03
 5.358686523E+03 1.806307817E-03
 5.393573242E+03 1.804294996E-03
 5.423180176E+03 1.802286133E-03
 5.457428223E+03 1.800280646E-03
 5.492201660E+03 1.798277488E-03
 5.527604492E+03 1.796278986E-03
 5.563718262E+03 1.794284559E-03
 5.593792480E+03 1.792293042E-03
 5.629200684E+03 1.790304435E-03
 5.665185059E+03 1.788318506E-03
 5.701830566E+03 1.786336303E-03
 5.739262207E+03 1.784357592E-03
 5.769825195E+03 1.782380976E-03
 5.806469238E+03 1.780407038E-03
 5.843738281E+03 1.778436126E-03
 5.881739258E+03 1.776467776E-03
 5.914257812E+03 1.774502452E-03
 5.951631348E+03 1.772538992E-03
 5.989594727E+03 1.770577859E-03
 6.028253418E+03 1.768619637E-03
 6.067713379E+03 1.766663394E-03
 6.100856934E+03 1.764709130E-03
 6.139602539E+03 1.762756496E-03
 6.179003906E+03 1.760806073E-03
 6.219161621E+03 1.758857165E-03
 6.260195312E+03 1.756909885E-03
 6.293951172E+03 1.754962956E-03
 6.334189941E+03 1.753017306E-03
 6.375143066E+03 1.751073636E-03
 6.416927734E+03 1.749131829E-03
 6.452852051E+03 1.747191534E-03
 6.494009277E+03 1.745252404E-03
 6.535856445E+03 1.743313856E-03
 6.578493652E+03 1.741377171E-03
 6.622060059E+03 1.739441999E-03
 6.658708984E+03 1.737506827E-03
 6.701552246E+03 1.735573052E-03
 6.745149414E+03 1.733639627E-03
 6.789635742E+03 1.731708064E-03
 6.835141602E+03 1.729777083E-03
 6.872466309E+03 1.727846451E-03
 6.917128906E+03 1.725915470E-03
 6.962647461E+03 1.723986235E-03
 7.009148926E+03 1.722057117E-03
 7.048875977E+03 1.720127882E-03
 7.094727051E+03 1.718198881E-03
 7.141379395E+03 1.716269995E-03
 7.189008301E+03 1.714342274E-03
 7.237749023E+03 1.712414203E-03
 7.278228516E+03 1.710485201E-03
 7.326156250E+03 1.708555967E-03
 7.375020996E+03 1.706627198E-03
 7.424977051E+03 1.704698429E-03
 7.467964844E+03 1.702768262E-03
 7.517290527E+03 1.700837631E-03
 7.567536621E+03 1.698906999E-03
 7.618842773E+03 1.696975785E-03
 7.671392090E+03 1.695043640E-03
 7.715155762E+03 1.693110447E-03
 7.766906250E+03 1.691176090E-03
 7.819709961E+03 1.689240686E-03
 7.873752930E+03 1.687304350E-03
 7.920137207E+03 1.685366849E-03
 7.973542969E+03 1.683427487E-03
 8.027996582E+03 1.681487309E-03
 8.083683594E+03 1.679546083E-03
 8.132681152E+03 1.677602879E-03
 8.187901367E+03 1.675657812E-03
 8.244153320E+03 1.673710300E-03
 8.301641602E+03 1.671761042E-03
 8.360581055E+03 1.669809804E-03
 8.410438477E+03 1.667856588E-03
 8.468669922E+03 1.665901160E-03
 8.528141602E+03 1.663943985E-03
 8.589100586E+03 1.661984599E-03
 8.641729492E+03 1.660022535E-03
 8.702103516E+03 1.658058143E-03
 8.763752930E+03 1.656091772E-03
 8.826902344E+03 1.654122607E-03
 8.882340820E+03 1.652150415E-03
 8.945047852E+03 1.650175778E-03
 9.009077148E+03 1.648198464E-03
 9.074663086E+03 1.646218356E-03
 9.132925781E+03 1.644234406E-03
 9.198181641E+03 1.642247895E-03
 9.264808594E+03 1.640257891E-03
 9.333064453E+03 1.638264628E-03
 9.403196289E+03 1.636267873E-03
 9.462240234E+03 1.634267392E-03
 9.531706055E+03 1.632263302E-03
 9.602890625E+03 1.630255952E-03
 9.676072266E+03 1.628243830E-03
 9.738029297E+03 1.626228448E-03
 9.810613281E+03 1.624208526E-03
 9.885020508E+03 1.622184762E-03
 9.961553711E+03 1.620156225E-03
 1.002647754E+04 1.618123031E-03
 1.010246680E+04 1.616085647E-03
 1.018042773E+04 1.614043140E-03
 1.025062891E+04 1.611995744E-03
 1.032858203E+04 1.609943458E-03
 1.040835352E+04 1.607886050E-03
 1.049024121E+04 1.605823636E-03
 1.056358203E+04 1.603755401E-03
 1.064551270E+04 1.601682161E-03
 1.072940723E+04 1.599603449E-03
 1.081571094E+04 1.597518800E-03
 1.089222461E+04 1.595428330E-03
 1.097852930E+04 1.593331923E-03
 1.106706152E+04 1.591228531E-03
 1.115827832E+04 1.589118619E-03
 1.123794629E+04 1.587002072E-03
 1.132913477E+04 1.584879239E-03
 1.142285547E+04 1.582749537E-03
 1.150817871E+04 1.580613083E-03
 1.160237109E+04 1.578469644E-03
 1.169899902E+04 1.576319104E-03
 1.179856641E+04 1.574161113E-03
 1.188731055E+04 1.571995672E-03
 1.198728125E+04 1.569822780E-03
 1.209011523E+04 1.567642321E-03
 1.218465918E+04 1.565453364E-03
 1.228835059E+04 1.563256141E-03
 1.239487402E+04 1.561051002E-03
 1.250480176E+04 1.558836782E-03
 1.260297363E+04 1.556614297E-03
 1.271364941E+04 1.554382965E-03
 1.282771289E+04 1.552142552E-03
 1.293204883E+04 1.549892710E-03
 1.304732031E+04 1.547633437E-03
 1.316603223E+04 1.545364154E-03
 1.327656348E+04 1.543085324E-03
 1.339691309E+04 1.540796249E-03
 1.352078125E+04 1.538496464E-03
 1.364899707E+04 1.536191558E-03
 1.376149512E+04 1.533910749E-03
 1.388657324E+04 1.531658345E-03
 1.401351172E+04 1.529433066E-03
 1.412638867E+04 1.527232584E-03
 1.425034473E+04 1.525057130E-03
 1.437592188E+04 1.522906357E-03
 1.448959668E+04 1.520780032E-03
 1.461242285E+04 1.518678386E-03
 1.473655273E+04 1.516600605E-03
 1.486245508E+04 1.514546457E-03
 1.497307520E+04 1.512514311E-03
 1.509577246E+04 1.510504866E-03
 1.521994336E+04 1.508517307E-03
 1.533253906E+04 1.506551169E-03
 1.545391211E+04 1.504606451E-03
 1.557638086E+04 1.502682455E-03
 1.570032422E+04 1.500778832E-03
 1.581116797E+04 1.498895115E-03
 1.593211230E+04 1.497031655E-03
 1.605412598E+04 1.495186938E-03
 1.617764453E+04 1.493361196E-03
 1.628724414E+04 1.491553965E-03
 1.640761133E+04 1.489765127E-03
 1.652904492E+04 1.487994217E-03
 1.665189844E+04 1.486240770E-03
 1.676092969E+04 1.484504435E-03
 1.688061719E+04 1.482785097E-03
 1.700123438E+04 1.481082523E-03
 1.712319141E+04 1.479396247E-03
 1.724680664E+04 1.477725804E-03
 1.735115430E+04 1.476071426E-03
 1.747087695E+04 1.474432764E-03
 1.759177344E+04 1.472809236E-03
 1.771417188E+04 1.471200259E-03
 1.781950195E+04 1.469606650E-03
 1.793826367E+04 1.468027243E-03
 1.805800000E+04 1.466462389E-03
 1.817898633E+04 1.464911154E-03
 1.830156836E+04 1.463373657E-03
 1.840358203E+04 1.461850014E-03
 1.852210156E+04 1.460339874E-03
 1.864169336E+04 1.458842773E-03
 1.876259375E+04 1.457358245E-03
 1.886714453E+04 1.455886755E-03
 1.898451758E+04 1.454427722E-03
 1.910266211E+04 1.452981494E-03
 1.922190820E+04 1.451547141E-03
 1.934247852E+04 1.450124313E-03
 1.944543945E+04 1.448713359E-03
 1.956227930E+04 1.447314513E-03
 1.967987500E+04 1.445927424E-03
 1.979856836E+04 1.444550697E-03
 1.991857227E+04 1.443185029E-03
 2.002072266E+04 1.441830420E-03
 2.013693945E+04 1.440487104E-03
 2.025390234E+04 1.439154497E-03
 2.037181250E+04 1.437831670E-03
 2.049097266E+04 1.436518738E-03
 2.061158789E+04 1.435215818E-03
 2.070867773E+04 1.433923608E-03
 2.082483594E+04 1.432640944E-03
 2.094185352E+04 1.431367942E-03
 2.106001367E+04 1.430104137E-03
 2.117945703E+04 1.428849762E-03
 2.127771289E+04 1.427605283E-03
 2.139298828E+04 1.426370232E-03
 2.150898633E+04 1.425144146E-03
 2.162596680E+04 1.423926093E-03
 2.174409570E+04 1.422717003E-03
 2.186356250E+04 1.421516994E-03
 2.195859180E+04 1.420326298E-03
 2.207355273E+04 1.419144101E-03
 2.218927344E+04 1.417969819E-03
 2.230596680E+04 1.416803338E-03
 2.242386523E+04 1.415645122E-03
 2.254309375E+04 1.414495753E-03
 2.263584766E+04 1.413354184E-03
 2.275034766E+04 1.412220648E-03
 2.286561914E+04 1.411094214E-03
 2.298184180E+04 1.409975346E-03
 2.309924414E+04 1.408864046E-03
 2.321788086E+04 1.407761127E-03
 2.330959570E+04 1.406666008E-03
 2.342348633E+04 1.405577525E-03
 2.353810547E+04 1.404495910E-03
 2.365370898E+04 1.403420931E-03
 2.377031055E+04 1.402353402E-03
 2.388817383E+04 1.401293324E-03
 2.397994141E+04 1.400240813E-03
 2.409307227E+04 1.399194822E-03
 2.420693555E+04 1.398158027E-03
 2.432222266E+04 1.397292130E-03
ZONE T="ZONE 001"
 STRANDID=0, SOLUTIONTIME=0
 I=449, J=1, K=1, ZONETYPE=Ordered