TITLE     = ""
VARIABLES = "cf"
"retheta"
ZONE T="SA - M2 Tw1"
 4.015850052E-08 0.000000000E+00
 4.016190047E-08 0.000000000E+00
 0.000000000E+00 0.000000000E+00
 -8.033139665E-08 -1.054201334E-06
 -8.033330090E-08 -5.271012355E-07
 0.000000000E+00 0.000000000E+00
 0.000000000E+00 0.000000000E+00
 0.000000000E+00 0.000000000E+00
 -4.017190136E-08 0.000000000E+00
 -8.034579935E-08 -5.270999850E-07
 0.000000000E+00 0.000000000E+00
 -4.017470090E-08 0.000000000E+00
 -4.017540078E-08 -5.270999850E-07
 0.000000000E+00 0.000000000E+00
 0.000000000E+00 0.000000000E+00
 0.000000000E+00 0.000000000E+00
 0.000000000E+00 0.000000000E+00
 4.018020050E-08 0.000000000E+00
 4.018059840E-08 0.000000000E+00
 0.000000000E+00 0.000000000E+00
 0.000000000E+00 0.000000000E+00
 -8.036570165E-08 -5.270987344E-07
 -8.036710142E-08 -5.270987344E-07
 0.000000000E+00 0.000000000E+00
 0.000000000E+00 0.000000000E+00
 0.000000000E+00 1.366524924E-15
 0.000000000E+00 0.000000000E+00
 0.000000000E+00 0.000000000E+00
 -4.018669841E-08 -5.270987344E-07
 0.000000000E+00 -5.270987344E-07
 -8.037530108E-08 -5.270987344E-07
 0.000000000E+00 0.000000000E+00
 -4.018789923E-08 0.000000000E+00
 -4.018810174E-08 -1.366524924E-15
 0.000000000E+00 0.000000000E+00
 0.000000000E+00 0.000000000E+00
 0.000000000E+00 0.000000000E+00
 0.000000000E+00 0.000000000E+00
 -4.018849964E-08 -5.270987344E-07
 0.000000000E+00 0.000000000E+00
 0.000000000E+00 0.000000000E+00
 0.000000000E+00 0.000000000E+00
 0.000000000E+00 0.000000000E+00
 8.037950039E-08 0.000000000E+00
 -8.037989829E-08 0.000000000E+00
 0.000000000E+00 0.000000000E+00
 4.019079825E-08 0.000000000E+00
 0.000000000E+00 -5.270987344E-07
 0.000000000E+00 0.000000000E+00
 0.000000000E+00 0.000000000E+00
 0.000000000E+00 0.000000000E+00
 4.019199906E-08 0.000000000E+00
 -8.038490051E-08 -5.270987344E-07
 -8.038519894E-08 -5.270974839E-07
 0.000000000E+00 0.000000000E+00
 -8.038639976E-08 -5.270974839E-07
 -4.019339883E-08 0.000000000E+00
 8.038740162E-08 0.000000000E+00
 0.000000000E+00 0.000000000E+00
 4.019430122E-08 0.000000000E+00
 0.000000000E+00 0.000000000E+00
 0.000000000E+00 0.000000000E+00
 -4.019490163E-08 0.000000000E+00
 0.000000000E+00 0.000000000E+00
 0.000000000E+00 0.000000000E+00
 4.019529953E-08 0.000000000E+00
 0.000000000E+00 0.000000000E+00
 -8.039079802E-08 0.000000000E+00
 4.019549849E-08 0.000000000E+00
 -8.039059907E-08 -5.270974839E-07
 -4.019549849E-08 -5.270974839E-07
 0.000000000E+00 0.000000000E+00
 -4.019529953E-08 0.000000000E+00
 -8.039079802E-08 -5.270974839E-07
 4.019560151E-08 0.000000000E+00
 0.000000000E+00 0.000000000E+00
 -4.019539901E-08 -5.270974839E-07
 4.019520006E-08 0.000000000E+00
 0.000000000E+00 0.000000000E+00
 4.019490163E-08 0.000000000E+00
 0.000000000E+00 0.000000000E+00
 -8.038900035E-08 -5.270974839E-07
 0.000000000E+00 -5.270974839E-07
 -8.038809796E-08 -5.270974839E-07
 4.019360134E-08 0.000000000E+00
 0.000000000E+00 0.000000000E+00
 -4.019160116E-08 -5.270974839E-07
 0.000000000E+00 0.000000000E+00
 -4.018789923E-08 -1.054194968E-06
 0.000000000E+00 0.000000000E+00
 0.000000000E+00 0.000000000E+00
 0.000000000E+00 0.000000000E+00
 -4.016269983E-08 -1.366524924E-15
 0.000000000E+00 0.000000000E+00
 0.000000000E+00 0.000000000E+00
 4.006469823E-08 0.000000000E+00
 1.593109965E-02 9.277612305E+01
 4.671069793E-03 1.264324951E+02
 3.385070013E-03 1.546875000E+02
 3.015219932E-03 1.788362579E+02
 2.887150040E-03 2.010100098E+02
 2.809559926E-03 2.215962524E+02
 2.738789888E-03 2.410600128E+02
 2.688470064E-03 2.603325195E+02
 2.647300018E-03 2.795924988E+02
 2.609319985E-03 2.980812378E+02
 2.573450096E-03 3.163225098E+02
 2.543610055E-03 3.346987305E+02
 2.516800072E-03 3.528674927E+02
 2.490859944E-03 3.706687622E+02
 2.466769889E-03 3.884349976E+02
 2.445220016E-03 4.062225037E+02
 2.425329993E-03 4.238887329E+02
 2.406330081E-03 4.413262634E+02
 2.388390014E-03 4.587474976E+02
 2.371690003E-03 4.761737366E+02
 2.355979988E-03 4.934599915E+02
 2.340999898E-03 5.106537476E+02
 2.326739952E-03 5.278187256E+02
 2.313229954E-03 5.449437866E+02
 2.300349995E-03 5.620075073E+02
 2.287989948E-03 5.790162354E+02
 2.276130021E-03 5.959812622E+02
 2.264729934E-03 6.128975220E+02
 2.253769897E-03 6.297712402E+02
 2.243220108E-03 6.466149902E+02
 2.233060077E-03 6.634425049E+02
 2.223260002E-03 6.802525024E+02
 2.213800093E-03 6.969937134E+02
 2.204620047E-03 7.136825562E+02
 2.195700072E-03 7.303512573E+02
 2.187049948E-03 7.470225220E+02
 2.178659895E-03 7.636975098E+02
 2.170559950E-03 7.803012695E+02
 2.162700053E-03 7.969262695E+02
 2.155029913E-03 8.135700073E+02
 2.147519961E-03 8.300912476E+02
 2.140159952E-03 8.466237183E+02
 2.132979920E-03 8.632274780E+02
 2.125990111E-03 8.797262573E+02
 2.119170036E-03 8.962774658E+02
 2.112509916E-03 9.128449707E+02
 2.105969936E-03 9.293012695E+02
 2.099540085E-03 9.458349609E+02
 2.093239920E-03 9.622649536E+02
 2.087069908E-03 9.787587891E+02
 2.081060084E-03 9.952674561E+02
 2.075209981E-03 1.011762512E+03
 2.069500042E-03 1.028323730E+03
 2.063889988E-03 1.044792480E+03
 2.058360027E-03 1.061358765E+03
 2.052909927E-03 1.077787476E+03
 2.047529910E-03 1.094341309E+03
 2.042239998E-03 1.110751221E+03
 2.037029946E-03 1.127317505E+03
 2.031920012E-03 1.143758789E+03
 2.026889939E-03 1.160354980E+03
 2.021949971E-03 1.176843750E+03
 2.017090097E-03 1.193439941E+03
 2.012300072E-03 1.209958740E+03
 2.007569885E-03 1.226530029E+03
 2.002910012E-03 1.243091187E+03
 1.998309977E-03 1.259637451E+03
 1.993790036E-03 1.276275024E+03
 1.989329932E-03 1.292812500E+03
 1.984939910E-03 1.309537476E+03
 1.980609959E-03 1.326099976E+03
 1.976330066E-03 1.342787476E+03
 1.972099999E-03 1.359424927E+03
 1.967899967E-03 1.376037598E+03
 1.963760005E-03 1.392812500E+03
 1.959670102E-03 1.409412476E+03
 1.955660060E-03 1.426200073E+03
 1.951709972E-03 1.442987549E+03
 1.947829966E-03 1.459750000E+03
 1.944000018E-03 1.476662476E+03
 1.940189977E-03 1.493362549E+03
 1.936399960E-03 1.510187378E+03
 1.932619954E-03 1.527062500E+03
 1.928879996E-03 1.543862427E+03
 1.925189979E-03 1.560825073E+03
 1.921580057E-03 1.577762451E+03
 1.918019960E-03 1.594674927E+03
 1.914500026E-03 1.611737549E+03
 1.910999999E-03 1.628674927E+03
 1.907509984E-03 1.645674927E+03
 1.904060016E-03 1.662824951E+03
 1.900639967E-03 1.679825073E+03
 1.897259965E-03 1.696937500E+03
 1.893940032E-03 1.714200073E+03
 1.890650019E-03 1.731275024E+03
 1.887400053E-03 1.748475098E+03
 1.884169993E-03 1.765837524E+03
 1.880949945E-03 1.783000000E+03
 1.877760049E-03 1.800287476E+03
 1.874599955E-03 1.817724976E+03
 1.871460001E-03 1.834987549E+03
 1.868359977E-03 1.852349976E+03
 1.865279977E-03 1.869875000E+03
 1.862240024E-03 1.887287476E+03
 1.859219978E-03 1.904762451E+03
 1.856219955E-03 1.922387451E+03
 1.853249967E-03 1.939975098E+03
 1.850310015E-03 1.957524902E+03
 1.847389969E-03 1.975237549E+03
 1.844489947E-03 1.993025024E+03
 1.841619960E-03 2.010650024E+03
 1.838769997E-03 2.028424927E+03
 1.835940056E-03 2.046362549E+03
 1.833130023E-03 2.064125000E+03
 1.830340014E-03 2.081974854E+03
 1.827570028E-03 2.100000000E+03
 1.824829960E-03 2.118024902E+03
 1.822100021E-03 2.135974854E+03
 1.819400000E-03 2.154087646E+03
 1.816720003E-03 2.172350098E+03
 1.814050018E-03 2.190412598E+03
 1.811400056E-03 2.208587646E+03
 1.808770001E-03 2.226925049E+03
 1.806159969E-03 2.245300049E+03
 1.803559950E-03 2.263550049E+03
 1.800989965E-03 2.281975098E+03
 1.798429992E-03 2.300550049E+03
 1.795890043E-03 2.319037354E+03
 1.793370000E-03 2.337537354E+03
 1.790859969E-03 2.356212402E+03
 1.788369962E-03 2.375025146E+03
 1.785899978E-03 2.393625000E+03
 1.783440006E-03 2.412362549E+03
 1.780990046E-03 2.431250000E+03
 1.778549980E-03 2.450250000E+03
 1.776120043E-03 2.469074951E+03
 1.773710013E-03 2.488062500E+03
 1.771299983E-03 2.507225098E+03
 1.768919989E-03 2.526412354E+03
 1.766550005E-03 2.545487305E+03
 1.764210057E-03 2.564737549E+03
 1.761890016E-03 2.584150146E+03
 1.759579987E-03 2.603550049E+03
 1.757289981E-03 2.622875000E+03
 1.754999976E-03 2.642362305E+03
 1.752719982E-03 2.662024902E+03
 1.750449999E-03 2.681675049E+03
 1.748180017E-03 2.701250000E+03
 1.745920046E-03 2.721012451E+03
 1.743669971E-03 2.740949951E+03
 1.741430024E-03 2.760899902E+03
 1.739209983E-03 2.780750000E+03
 1.736999955E-03 2.800775146E+03
 1.734800055E-03 2.820987549E+03
 1.732619945E-03 2.841250000E+03
 1.730449963E-03 2.861375000E+03
 1.728279982E-03 2.881687500E+03
 1.726140035E-03 2.902187500E+03
 1.723999972E-03 2.922799805E+03
 1.721880049E-03 2.943199951E+03
 1.719760010E-03 2.963774902E+03
 1.717659994E-03 2.984550049E+03
 1.715559978E-03 3.005500000E+03
 1.713469974E-03 3.026250000E+03
 1.711389981E-03 3.047150146E+03
 1.709320000E-03 3.068225098E+03
 1.707250020E-03 3.089487549E+03
 1.705199946E-03 3.110649902E+03
 1.703160000E-03 3.131837646E+03
 1.701110043E-03 3.153212646E+03
 1.699079992E-03 3.174775146E+03
 1.697049942E-03 3.196400146E+03
 1.695020008E-03 3.217887451E+03
 1.692989958E-03 3.239587646E+03
 1.690980047E-03 3.261462646E+03
 1.688980032E-03 3.283537598E+03
 1.686990028E-03 3.305387451E+03
 1.685010036E-03 3.327425049E+03
 1.683040056E-03 3.349675049E+03
 1.681079972E-03 3.372125000E+03
 1.679120003E-03 3.394537598E+03
 1.677170047E-03 3.416912598E+03
 1.675229985E-03 3.439500000E+03
 1.673290040E-03 3.462274902E+03
 1.671359991E-03 3.485225098E+03
 1.669439953E-03 3.507937256E+03
 1.667520031E-03 3.530875000E+03
 1.665610005E-03 3.554037598E+03
 1.663699979E-03 3.577412598E+03
 1.661799964E-03 3.600712402E+03
 1.659899950E-03 3.624024902E+03
 1.658000052E-03 3.647549805E+03
 1.656119945E-03 3.671312500E+03
 1.654239953E-03 3.695287354E+03
 1.652369974E-03 3.719000000E+03
 1.650510007E-03 3.742949951E+03
 1.648650039E-03 3.767125000E+03
 1.646789955E-03 3.791512451E+03
 1.644939999E-03 3.815875000E+03
 1.643090043E-03 3.840212646E+03
 1.641249983E-03 3.864787598E+03
 1.639410038E-03 3.889625000E+03
 1.637579990E-03 3.914699951E+03
 1.635750057E-03 3.939550049E+03
 1.633930020E-03 3.964600098E+03
 1.632109983E-03 3.989875000E+03
 1.630299957E-03 4.015399902E+03
 1.628490048E-03 4.041000000E+03
 1.626680023E-03 4.066475098E+03
 1.624880009E-03 4.092225098E+03
 1.623079996E-03 4.118237305E+03
 1.621289994E-03 4.144512695E+03
 1.619499992E-03 4.170674805E+03
 1.617720001E-03 4.196899902E+03
 1.615940011E-03 4.223399902E+03
 1.614170033E-03 4.250162598E+03
 1.612390042E-03 4.277187500E+03
 1.610619947E-03 4.303937500E+03
 1.608839957E-03 4.330975098E+03
 1.607069978E-03 4.358312500E+03
 1.605310012E-03 4.385925293E+03
 1.603550045E-03 4.413587402E+03
 1.601799973E-03 4.441149902E+03
 1.600050018E-03 4.469012695E+03
 1.598309958E-03 4.497175293E+03
 1.596560003E-03 4.525612305E+03
 1.594819943E-03 4.553962402E+03
 1.593069988E-03 4.582437500E+03
 1.591330045E-03 4.611212402E+03
 1.589589985E-03 4.640274902E+03
 1.587860053E-03 4.669637207E+03
 1.586140017E-03 4.698699707E+03
 1.584419981E-03 4.728087402E+03
 1.582699944E-03 4.757787598E+03
 1.580970013E-03 4.787824707E+03
 1.579249976E-03 4.817950195E+03
 1.577520045E-03 4.848012695E+03
 1.575800008E-03 4.878412598E+03
 1.574089983E-03 4.909149902E+03
 1.572379959E-03 4.940200195E+03
 1.570670051E-03 4.971162598E+03
 1.568960026E-03 5.002262695E+03
 1.567250001E-03 5.033712402E+03
 1.565539977E-03 5.065512207E+03
 1.563839964E-03 5.097649902E+03
 1.562130055E-03 5.129512207E+03
 1.560430042E-03 5.161762207E+03
 1.558730030E-03 5.194387695E+03
 1.557040028E-03 5.227375000E+03
 1.555340015E-03 5.260449707E+03
 1.553650014E-03 5.293462402E+03
 1.551950001E-03 5.326862305E+03
 1.550249988E-03 5.360662598E+03
 1.548549975E-03 5.394837402E+03
 1.546849962E-03 5.428924805E+03
 1.545159961E-03 5.463262695E+03
 1.543469960E-03 5.498012695E+03
 1.541779959E-03 5.533149902E+03
 1.540099969E-03 5.568575195E+03
 1.538409968E-03 5.603787598E+03
 1.536709955E-03 5.639424805E+03
 1.535019954E-03 5.675487305E+03
 1.533329953E-03 5.712012695E+03
 1.531639951E-03 5.748587402E+03
 1.529959962E-03 5.785287598E+03
 1.528279972E-03 5.822450195E+03
 1.526589971E-03 5.860062500E+03
 1.524899970E-03 5.898112305E+03
 1.523209969E-03 5.935862305E+03
 1.521509956E-03 5.974062500E+03
 1.519819954E-03 6.012750000E+03
 1.518139965E-03 6.051924805E+03
 1.516449964E-03 6.091212402E+03
 1.514769974E-03 6.130600098E+03
 1.513079973E-03 6.170524902E+03
 1.511389972E-03 6.210975098E+03
 1.509699970E-03 6.251937500E+03
 1.507999958E-03 6.292624512E+03
 1.506299945E-03 6.333787598E+03
 1.504609943E-03 6.375500000E+03
 1.502919942E-03 6.417725098E+03
 1.501230057E-03 6.460074707E+03
 1.499540056E-03 6.502600098E+03
 1.497840043E-03 6.545737305E+03
 1.496140030E-03 6.589462402E+03
 1.494430006E-03 6.633662109E+03
 1.492729993E-03 6.677649902E+03
 1.491029980E-03 6.722225098E+03
 1.489329967E-03 6.767412598E+03
 1.487629954E-03 6.813199707E+03
 1.485930057E-03 6.858974609E+03
 1.484220033E-03 6.905187500E+03
 1.482499996E-03 6.952087402E+03
 1.480789972E-03 6.999649902E+03
 1.479070052E-03 7.047437012E+03
 1.477360027E-03 7.095325195E+03
 1.475650002E-03 7.143875000E+03
 1.473929966E-03 7.193112305E+03
 1.472210046E-03 7.242924805E+03
 1.470479998E-03 7.292649902E+03
 1.468749950E-03 7.343162598E+03
 1.467020018E-03 7.394437500E+03
 1.465279958E-03 7.446462402E+03
 1.463550027E-03 7.498250000E+03
 1.461819978E-03 7.550750000E+03
 1.460080035E-03 7.604037598E+03
 1.458339975E-03 7.658137695E+03
 1.456590020E-03 7.712237305E+03
 1.454839949E-03 7.766949707E+03
 1.453079982E-03 7.822512207E+03
 1.451330027E-03 7.878899902E+03
 1.449569943E-03 7.935412598E+03
 1.447809977E-03 7.992462402E+03
 1.446050010E-03 8.050475098E+03
 1.444280031E-03 8.109399902E+03
 1.442500041E-03 8.168537598E+03
 1.440720051E-03 8.228211914E+03
 1.438939944E-03 8.288836914E+03
 1.437149942E-03 8.350437500E+03
 1.435360056E-03 8.412212891E+03
 1.433579950E-03 8.474625000E+03
 1.431780052E-03 8.538125000E+03
 1.429980039E-03 8.602687500E+03
 1.428170013E-03 8.667387695E+03
 1.426349976E-03 8.732900391E+03
 1.424530055E-03 8.799500000E+03
 1.422710018E-03 8.867225586E+03
 1.420879969E-03 8.934962891E+03
 1.419050037E-03 9.003787109E+03
 1.417219988E-03 9.073837891E+03
 1.415370032E-03 9.144950195E+03
 1.413519960E-03 9.216087891E+03
 1.411659992E-03 9.288512695E+03
 1.409800025E-03 9.362250000E+03
 1.407940057E-03 9.436712891E+03
 1.406069961E-03 9.511762695E+03
 1.404189970E-03 9.588224609E+03
 1.402309979E-03 9.666075195E+03
 1.400409965E-03 9.744212891E+03
 1.398509950E-03 9.823475586E+03
 1.396610052E-03 9.904287109E+03
 1.394690014E-03 9.986337891E+03
 1.392779988E-03 1.006871191E+04
 1.390850055E-03 1.015273730E+04
 1.388920005E-03 1.023836230E+04
 1.386979944E-03 1.032454980E+04
 1.385029987E-03 1.041196289E+04
 1.383080031E-03 1.050114941E+04
 1.381110051E-03 1.059171289E+04
 1.379139954E-03 1.068284961E+04
 1.377169974E-03 1.077587500E+04
 1.375179971E-03 1.087079980E+04
 1.373189967E-03 1.096611230E+04
 1.371180057E-03 1.106331250E+04
 1.369160018E-03 1.116256250E+04
 1.367139979E-03 1.126282520E+04
 1.365110045E-03 1.136451270E+04
 1.363100018E-03 1.146662500E+04
 1.361120027E-03 1.156848730E+04
 1.359160058E-03 1.166954980E+04
 1.357209985E-03 1.177106250E+04
 1.355299959E-03 1.187293750E+04
 1.353409956E-03 1.197341211E+04
 1.351539977E-03 1.207422461E+04
 1.349680009E-03 1.217542480E+04
 1.347849960E-03 1.227611230E+04
 1.346040051E-03 1.237622461E+04
 1.344250049E-03 1.247676172E+04
 1.342489966E-03 1.257762500E+04
 1.340740011E-03 1.267725000E+04
 1.339009963E-03 1.277699902E+04
 1.337300055E-03 1.287712500E+04
 1.335600042E-03 1.297725000E+04
 1.333929948E-03 1.307625000E+04
 1.332269982E-03 1.317562500E+04
 1.330630039E-03 1.327525000E+04
 1.329010003E-03 1.337487500E+04
 1.327399979E-03 1.347337500E+04
 1.325809979E-03 1.357225000E+04
 1.324240002E-03 1.367150000E+04
 1.322680037E-03 1.377049902E+04
 1.321139978E-03 1.386850000E+04
 1.319619943E-03 1.396687500E+04
 1.318110037E-03 1.406562500E+04
 1.316610025E-03 1.416437402E+04
 1.315130037E-03 1.426187500E+04
 1.313669956E-03 1.435962500E+04
 1.312209992E-03 1.445775000E+04
 1.310770051E-03 1.455612500E+04
 1.309340005E-03 1.465325000E+04
 1.307929982E-03 1.475062500E+04
 1.306529972E-03 1.484812500E+04
 1.305149985E-03 1.494600000E+04
 1.303780009E-03 1.504325000E+04
 1.302410034E-03 1.513987500E+04
 1.301059965E-03 1.523675000E+04
 1.299730036E-03 1.533400000E+04
 1.298399991E-03 1.543137500E+04
 1.297089970E-03 1.552762500E+04
 1.295789960E-03 1.562387402E+04
 1.294499962E-03 1.572050000E+04
 1.293219975E-03 1.581725000E+04
 1.291950000E-03 1.591412500E+04
 1.290690037E-03 1.600962500E+04
 1.289439970E-03 1.610550000E+04
 1.288210042E-03 1.620150098E+04
 1.286979998E-03 1.629775000E+04
 1.285759965E-03 1.639400000E+04
 1.284549944E-03 1.648912500E+04
 1.283359947E-03 1.658450000E+04
 1.282169949E-03 1.668025000E+04
 1.280999975E-03 1.677612500E+04
 1.279830001E-03 1.687200000E+04
 1.278670039E-03 1.696662500E+04
 1.277519972E-03 1.706150000E+04
 1.276390045E-03 1.715662500E+04
 1.275260001E-03 1.725200000E+04
 1.274139970E-03 1.734750000E+04
 1.273029950E-03 1.744175000E+04
 1.271920046E-03 1.753612500E+04
 1.270830049E-03 1.763075000E+04
 1.269740053E-03 1.772562500E+04
 1.268659951E-03 1.782062500E+04
 1.267589978E-03 1.791512500E+04
 1.266530016E-03 1.800887500E+04
 1.265479950E-03 1.810287500E+04
 1.264430000E-03 1.819712500E+04
 1.263389946E-03 1.829150000E+04
 1.262360020E-03 1.838612500E+04
 1.261339989E-03 1.847950000E+04
 1.260319958E-03 1.857300000E+04
 1.259310055E-03 1.866662500E+04
 1.258300035E-03 1.876050000E+04
 1.257310039E-03 1.885450000E+04
 1.256320043E-03 1.894875000E+04
 1.255339943E-03 1.904137500E+04
 1.254369970E-03 1.913437500E+04
 1.253399998E-03 1.922737500E+04
 1.252440037E-03 1.932075000E+04
 1.251479960E-03 1.941425000E+04
 1.250530011E-03 1.950800000E+04
 1.249579946E-03 1.960025000E+04
 1.248650020E-03 1.969275000E+04
 1.247709966E-03 1.978587500E+04
 1.246799948E-03 1.987762500E+04
 1.245829975E-03 1.997637500E+04
 1.245129970E-03 2.004450000E+04
 1.243159990E-03 2.024812305E+04
 1.243159990E-03 2.024812305E+04
ZONE T="SA - M5 Tw0.2"
 0.000000000E+00 0.000000000E+00
 0.000000000E+00 0.000000000E+00
 0.000000000E+00 0.000000000E+00
 0.000000000E+00 0.000000000E+00
 0.000000000E+00 0.000000000E+00
 0.000000000E+00 0.000000000E+00
 0.000000000E+00 0.000000000E+00
 0.000000000E+00 0.000000000E+00
 0.000000000E+00 0.000000000E+00
 0.000000000E+00 0.000000000E+00
 0.000000000E+00 0.000000000E+00
 -5.021129823E-08 0.000000000E+00
 0.000000000E+00 0.000000000E+00
 5.021119875E-08 0.000000000E+00
 0.000000000E+00 0.000000000E+00
 0.000000000E+00 0.000000000E+00
 0.000000000E+00 0.000000000E+00
 0.000000000E+00 0.000000000E+00
 0.000000000E+00 0.000000000E+00
 0.000000000E+00 0.000000000E+00
 0.000000000E+00 0.000000000E+00
 5.021119875E-08 0.000000000E+00
 5.021119875E-08 0.000000000E+00
 0.000000000E+00 0.000000000E+00
 0.000000000E+00 0.000000000E+00
 0.000000000E+00 0.000000000E+00
 0.000000000E+00 0.000000000E+00
 0.000000000E+00 0.000000000E+00
 0.000000000E+00 0.000000000E+00
 0.000000000E+00 0.000000000E+00
 0.000000000E+00 0.000000000E+00
 0.000000000E+00 0.000000000E+00
 0.000000000E+00 0.000000000E+00
 0.000000000E+00 0.000000000E+00
 0.000000000E+00 0.000000000E+00
 0.000000000E+00 0.000000000E+00
 -5.021099980E-08 0.000000000E+00
 -5.021119875E-08 0.000000000E+00
 0.000000000E+00 0.000000000E+00
 5.021099980E-08 0.000000000E+00
 0.000000000E+00 0.000000000E+00
 0.000000000E+00 0.000000000E+00
 0.000000000E+00 0.000000000E+00
 5.021099980E-08 0.000000000E+00
 0.000000000E+00 0.000000000E+00
 0.000000000E+00 0.000000000E+00
 0.000000000E+00 0.000000000E+00
 0.000000000E+00 0.000000000E+00
 0.000000000E+00 0.000000000E+00
 0.000000000E+00 0.000000000E+00
 0.000000000E+00 0.000000000E+00
 -5.021090033E-08 -6.588775250E-07
 0.000000000E+00 0.000000000E+00
 0.000000000E+00 0.000000000E+00
 0.000000000E+00 0.000000000E+00
 0.000000000E+00 0.000000000E+00
 0.000000000E+00 0.000000000E+00
 0.000000000E+00 0.000000000E+00
 0.000000000E+00 0.000000000E+00
 0.000000000E+00 0.000000000E+00
 -5.021090033E-08 0.000000000E+00
 0.000000000E+00 0.000000000E+00
 -5.021080085E-08 0.000000000E+00
 0.000000000E+00 0.000000000E+00
 0.000000000E+00 0.000000000E+00
 0.000000000E+00 0.000000000E+00
 0.000000000E+00 0.000000000E+00
 -5.021080085E-08 0.000000000E+00
 -5.021090033E-08 0.000000000E+00
 0.000000000E+00 0.000000000E+00
 0.000000000E+00 0.000000000E+00
 -5.021090033E-08 0.000000000E+00
 0.000000000E+00 0.000000000E+00
 0.000000000E+00 0.000000000E+00
 0.000000000E+00 0.000000000E+00
 0.000000000E+00 0.000000000E+00
 0.000000000E+00 0.000000000E+00
 0.000000000E+00 0.000000000E+00
 0.000000000E+00 0.000000000E+00
 0.000000000E+00 0.000000000E+00
 0.000000000E+00 0.000000000E+00
 0.000000000E+00 0.000000000E+00
 0.000000000E+00 0.000000000E+00
 -5.021070137E-08 -6.588775250E-07
 0.000000000E+00 0.000000000E+00
 0.000000000E+00 0.000000000E+00
 0.000000000E+00 0.000000000E+00
 0.000000000E+00 0.000000000E+00
 0.000000000E+00 0.000000000E+00
 0.000000000E+00 0.000000000E+00
 0.000000000E+00 0.000000000E+00
 0.000000000E+00 0.000000000E+00
 0.000000000E+00 0.000000000E+00
 0.000000000E+00 0.000000000E+00
 0.000000000E+00 0.000000000E+00
 0.000000000E+00 0.000000000E+00
 1.547269989E-02 1.171662445E+02
 5.128719844E-03 1.319024963E+02
 4.162380006E-03 1.600449982E+02
 3.937750123E-03 1.887212372E+02
 3.843890037E-03 2.170862579E+02
 3.776219906E-03 2.444812469E+02
 3.701640060E-03 2.713462524E+02
 3.637509886E-03 2.980574951E+02
 3.584869904E-03 3.244049988E+02
 3.538290039E-03 3.501474915E+02
 3.491359996E-03 3.757125244E+02
 3.450609976E-03 4.011512756E+02
 3.415179905E-03 4.262812500E+02
 3.381350078E-03 4.511174927E+02
 3.348760074E-03 4.758150024E+02
 3.318730043E-03 5.003999939E+02
 3.291189903E-03 5.248175049E+02
 3.265060019E-03 5.490287476E+02
 3.240050049E-03 5.731362305E+02
 3.216410056E-03 5.971049805E+02
 3.194069955E-03 6.209575195E+02
 3.172710072E-03 6.446937256E+02
 3.152220044E-03 6.683362427E+02
 3.132649930E-03 6.918762817E+02
 3.113910090E-03 7.153287354E+02
 3.095869906E-03 7.386962280E+02
 3.078470007E-03 7.619862061E+02
 3.061729949E-03 7.851937866E+02
 3.045629943E-03 8.083137817E+02
 3.030080115E-03 8.313512573E+02
 3.015059978E-03 8.543150024E+02
 3.000529949E-03 8.772012329E+02
 2.986470005E-03 9.000200195E+02
 2.972810064E-03 9.227899780E+02
 2.959530102E-03 9.455224609E+02
 2.946590073E-03 9.682312622E+02
 2.933989977E-03 9.909099731E+02
 2.921710024E-03 1.013542480E+03
 2.909780014E-03 1.036162476E+03
 2.898199949E-03 1.058770020E+03
 2.886940027E-03 1.081312500E+03
 2.875990001E-03 1.103797485E+03
 2.865320072E-03 1.126260010E+03
 2.854869934E-03 1.148656250E+03
 2.844620030E-03 1.171006226E+03
 2.834540093E-03 1.193377441E+03
 2.824629890E-03 1.215701294E+03
 2.814949956E-03 1.238048706E+03
 2.805540105E-03 1.260400024E+03
 2.796370070E-03 1.282712524E+03
 2.787440084E-03 1.305049927E+03
 2.778700087E-03 1.327287476E+03
 2.770120045E-03 1.349550049E+03
 2.761679934E-03 1.371762451E+03
 2.753339941E-03 1.393974976E+03
 2.745120088E-03 1.416199951E+03
 2.737009898E-03 1.438424927E+03
 2.729059896E-03 1.460662476E+03
 2.721300116E-03 1.482900024E+03
 2.713690046E-03 1.505150024E+03
 2.706229920E-03 1.527375000E+03
 2.698869910E-03 1.549599976E+03
 2.691620030E-03 1.571837524E+03
 2.684530104E-03 1.594074951E+03
 2.677510027E-03 1.616325073E+03
 2.670600079E-03 1.638550049E+03
 2.663780004E-03 1.660837402E+03
 2.657070057E-03 1.683062378E+03
 2.650490031E-03 1.705349976E+03
 2.643950051E-03 1.727599976E+03
 2.637529979E-03 1.749925049E+03
 2.631240059E-03 1.772250000E+03
 2.625009976E-03 1.794587402E+03
 2.618890023E-03 1.816974976E+03
 2.612889977E-03 1.839287476E+03
 2.606950002E-03 1.861662476E+03
 2.601040062E-03 1.884012451E+03
 2.595159924E-03 1.906425049E+03
 2.589369891E-03 1.928912476E+03
 2.583699999E-03 1.951362549E+03
 2.578119980E-03 1.973887573E+03
 2.572640078E-03 1.996387451E+03
 2.567230025E-03 2.018875000E+03
 2.561880043E-03 2.041425049E+03
 2.556560095E-03 2.063937500E+03
 2.551269950E-03 2.086525146E+03
 2.546010073E-03 2.109199951E+03
 2.540800022E-03 2.131850098E+03
 2.535680076E-03 2.154612549E+03
 2.530680038E-03 2.177375000E+03
 2.525750082E-03 2.200125000E+03
 2.520869952E-03 2.222937500E+03
 2.516049892E-03 2.245725098E+03
 2.511270111E-03 2.268537598E+03
 2.506509889E-03 2.291437500E+03
 2.501779934E-03 2.314350098E+03
 2.497140085E-03 2.337287354E+03
 2.492489992E-03 2.360337646E+03
 2.487899968E-03 2.383375000E+03
 2.483339980E-03 2.406437500E+03
 2.478860086E-03 2.429600098E+03
 2.474450041E-03 2.452762451E+03
 2.470070031E-03 2.475937256E+03
 2.465710044E-03 2.499237549E+03
 2.461419906E-03 2.522550049E+03
 2.457140014E-03 2.545862549E+03
 2.452909946E-03 2.569250000E+03
 2.448709914E-03 2.592724854E+03
 2.444519894E-03 2.616149902E+03
 2.440409968E-03 2.639662354E+03
 2.436310053E-03 2.663300049E+03
 2.432239940E-03 2.686899902E+03
 2.428219886E-03 2.710574951E+03
 2.424249891E-03 2.734337402E+03
 2.420319943E-03 2.758137451E+03
 2.416420029E-03 2.781925049E+03
 2.412500093E-03 2.805849854E+03
 2.408660017E-03 2.829850098E+03
 2.404839965E-03 2.853800049E+03
 2.401039936E-03 2.877862305E+03
 2.397259930E-03 2.902037598E+03
 2.393539995E-03 2.926225098E+03
 2.389840083E-03 2.950425049E+03
 2.386169974E-03 2.974750000E+03
 2.382539911E-03 2.999175049E+03
 2.378939884E-03 3.023550049E+03
 2.375320066E-03 3.048024902E+03
 2.371740062E-03 3.072625000E+03
 2.368180081E-03 3.097275146E+03
 2.364669926E-03 3.121912598E+03
 2.361220075E-03 3.146662598E+03
 2.357709920E-03 3.171524902E+03
 2.354240045E-03 3.196412598E+03
 2.350819996E-03 3.221349854E+03
 2.347429981E-03 3.246387695E+03
 2.344029956E-03 3.271562500E+03
 2.340669977E-03 3.296737549E+03
 2.337330021E-03 3.321987549E+03
 2.334030112E-03 3.347350098E+03
 2.330739982E-03 3.372837402E+03
 2.327470109E-03 3.398274902E+03
 2.324220026E-03 3.423824951E+03
 2.320989966E-03 3.449487549E+03
 2.317779930E-03 3.475262451E+03
 2.314569894E-03 3.501012451E+03
 2.311389893E-03 3.526899902E+03
 2.308239928E-03 3.552899902E+03
 2.305109985E-03 3.579024902E+03
 2.302000066E-03 3.605125000E+03
 2.298899926E-03 3.631350098E+03
 2.295820042E-03 3.657687744E+03
 2.292789984E-03 3.684162598E+03
 2.289720112E-03 3.710612305E+03
 2.286690054E-03 3.737175049E+03
 2.283670008E-03 3.763899902E+03
 2.280669985E-03 3.790725098E+03
 2.277710009E-03 3.817562500E+03
 2.274770057E-03 3.844487305E+03
 2.271810081E-03 3.871574951E+03
 2.268869895E-03 3.898787598E+03
 2.265959978E-03 3.926024902E+03
 2.263090108E-03 3.953349854E+03
 2.260199981E-03 3.980812500E+03
 2.257270040E-03 4.008424805E+03
 2.254389925E-03 4.036112549E+03
 2.251530066E-03 4.063849854E+03
 2.248689998E-03 4.091737549E+03
 2.245869953E-03 4.119774902E+03
 2.243089955E-03 4.147925293E+03
 2.240319969E-03 4.176050293E+03
 2.237519948E-03 4.204337402E+03
 2.234749962E-03 4.232799805E+03
 2.232020022E-03 4.261412598E+03
 2.229270060E-03 4.290024902E+03
 2.226500073E-03 4.318800293E+03
 2.223759890E-03 4.347725098E+03
 2.221039962E-03 4.376824707E+03
 2.218340058E-03 4.406000000E+03
 2.215659944E-03 4.435212402E+03
 2.213010099E-03 4.464587402E+03
 2.210380044E-03 4.494125000E+03
 2.207719954E-03 4.523824707E+03
 2.205070108E-03 4.553524902E+03
 2.202460077E-03 4.583412598E+03
 2.199820010E-03 4.613475098E+03
 2.197159920E-03 4.643712402E+03
 2.194530098E-03 4.674024902E+03
 2.191940090E-03 4.704424805E+03
 2.189370105E-03 4.735000000E+03
 2.186799888E-03 4.765750000E+03
 2.184219891E-03 4.796675293E+03
 2.181639895E-03 4.827587402E+03
 2.179089934E-03 4.858725098E+03
 2.176539972E-03 4.890049805E+03
 2.174000023E-03 4.921574707E+03
 2.171490109E-03 4.953175293E+03
 2.168999985E-03 4.984862793E+03
 2.166510094E-03 5.016737305E+03
 2.164009959E-03 5.048824707E+03
 2.161520068E-03 5.081112793E+03
 2.159019932E-03 5.113412598E+03
 2.156520030E-03 5.145925293E+03
 2.154059941E-03 5.178662109E+03
 2.151629888E-03 5.211575195E+03
 2.149190055E-03 5.244637695E+03
 2.146719955E-03 5.277774902E+03
 2.144270111E-03 5.311137695E+03
 2.141840057E-03 5.344675293E+03
 2.139420016E-03 5.378450195E+03
 2.136969939E-03 5.412300293E+03
 2.134549897E-03 5.446337891E+03
 2.132150112E-03 5.480612793E+03
 2.129760105E-03 5.515125000E+03
 2.127389889E-03 5.549837402E+03
 2.125019906E-03 5.584562500E+03
 2.122649923E-03 5.619524902E+03
 2.120249905E-03 5.654750488E+03
 2.117849886E-03 5.690199707E+03
 2.115489915E-03 5.725812500E+03
 2.113149967E-03 5.761525391E+03
 2.110860078E-03 5.797487793E+03
 2.108500106E-03 5.833737793E+03
 2.106129890E-03 5.870237305E+03
 2.103789942E-03 5.906812500E+03
 2.101460006E-03 5.943574707E+03
 2.099120058E-03 5.980625488E+03
 2.096789889E-03 6.017924805E+03
 2.094469965E-03 6.055500000E+03
 2.092180075E-03 6.093112793E+03
 2.089899965E-03 6.131012207E+03
 2.087590052E-03 6.169225098E+03
 2.085289918E-03 6.207699707E+03
 2.083010040E-03 6.246362305E+03
 2.080709906E-03 6.285149902E+03
 2.078410005E-03 6.324237305E+03
 2.076129895E-03 6.363625488E+03
 2.073860029E-03 6.403300293E+03
 2.071599942E-03 6.443124512E+03
 2.069330076E-03 6.483187500E+03
 2.067080000E-03 6.523575195E+03
 2.064839937E-03 6.564250000E+03
 2.062560059E-03 6.605225098E+03
 2.060279949E-03 6.646287598E+03
 2.058030106E-03 6.687662598E+03
 2.055790043E-03 6.729387695E+03
 2.053549979E-03 6.771425293E+03
 2.051309915E-03 6.813737793E+03
 2.049070084E-03 6.856212402E+03
 2.046850044E-03 6.899037598E+03
 2.044619992E-03 6.942225098E+03
 2.042379929E-03 6.985737793E+03
 2.040159889E-03 7.029449707E+03
 2.037960105E-03 7.073412598E+03
 2.035760088E-03 7.117737793E+03
 2.033500001E-03 7.162449707E+03
 2.031269949E-03 7.207550293E+03
 2.029059920E-03 7.252750000E+03
 2.026859904E-03 7.298350098E+03
 2.024640096E-03 7.344362793E+03
 2.022430068E-03 7.390750000E+03
 2.020240063E-03 7.437412109E+03
 2.018040046E-03 7.484299805E+03
 2.015830018E-03 7.531599609E+03