# Profiles of:
# 	Mean streamwise velocity	U/U_infty
# 	Mean cross-stream velocity	V/U_infty
# 	uu Stress component		uu/(U_infty^2)
# 	vv Stress component		vv/(U_infty^2)
# 	ww Stress component		ww/(U_infty^2)
# 	uv Stress component		uv/(U_infty^2)
# 	vw Stress component		vw/(U_infty^2)
# 	uw Stress component		uw/(U_infty^2)
# 	Turbulence kinetic energy	(uu+vv+ww)/(2*U_infty^2)
#
# From LES simulatations of the flow over a wall-mounted hump
# of A.Avdis, TFMS, Aero., Imperial College London
# (see also Greenblatt et al, AIAA Journal, vol.44, numb.2 pp.194-207)
#
variables="y/C","U/U_infty","V/U_infty","uu/(U_infty^2)","vv/(U_infty^2)","ww/(U_infty^2)","uv/(U_infty^2)","vw/(U_infty^2)","uw/(U_infty^2)","TKE"
zone, t="x/c=0.65"
1.1614585e-01 	2.0478437e-01 	-2.5801886e-02 	5.8894397e-02 	1.9252135e-02 	3.0070975e-02 	-7.8992555e-03 	-4.3775417e-04 	3.2296957e-03 	5.4108754e-02 	
1.1706974e-01 	1.5718848e-01 	-3.0667905e-02 	6.8499103e-02 	2.3445471e-02 	3.4688231e-02 	-7.1709158e-03 	-5.2998886e-04 	2.4610878e-03 	6.3316403e-02 	
1.1799363e-01 	3.5761473e-01 	-5.2749346e-02 	6.1119849e-02 	1.7584968e-02 	2.7904648e-02 	-9.1176072e-03 	-8.4856457e-04 	5.5874696e-03 	5.3304733e-02 	
1.1891752e-01 	5.8653808e-01 	-7.6021087e-02 	5.1409233e-02 	1.0575102e-02 	1.9880910e-02 	-1.1235662e-02 	-1.1879679e-03 	9.1786198e-03 	4.0932622e-02 	
1.1984141e-01 	7.0903383e-01 	-9.4671222e-02 	4.0399915e-02 	8.4494932e-03 	1.4794589e-02 	-9.7417653e-03 	-1.4942776e-03 	1.1263368e-02 	3.1821998e-02 	
1.2076530e-01 	8.0161622e-01 	-1.1201684e-01 	2.9105987e-02 	7.6831773e-03 	1.0532397e-02 	-7.2603025e-03 	-1.7908479e-03 	1.2921602e-02 	2.3660781e-02 	
1.2168919e-01 	8.6838969e-01 	-1.1395918e-01 	2.3004656e-02 	6.4949072e-03 	8.5290059e-03 	-5.8951477e-03 	-1.8482682e-03 	1.4158004e-02 	1.9014285e-02 	
1.2261308e-01 	9.3044631e-01 	-1.1293675e-01 	1.7858009e-02 	5.2166618e-03 	6.9596378e-03 	-4.7275014e-03 	-1.8596916e-03 	1.5314138e-02 	1.5017154e-02 	
1.2353697e-01 	9.6144019e-01 	-1.2098020e-01 	1.4727498e-02 	4.6926530e-03 	6.0811061e-03 	-3.8289588e-03 	-1.9993578e-03 	1.5889815e-02 	1.2750628e-02 	
1.2446087e-01 	9.9199769e-01 	-1.2570177e-01 	1.1931405e-02 	4.1792994e-03 	5.3078158e-03 	-3.0393489e-03 	-2.0822684e-03 	1.6435652e-02 	1.0709260e-02 	
1.2538476e-01 	1.0195748e+00 	-1.2258626e-01 	9.9948135e-03 	3.7064708e-03 	4.7690487e-03 	-2.5675732e-03 	-2.0292015e-03 	1.6863672e-02 	9.2351665e-03 	
1.2630865e-01 	1.0386826e+00 	-1.2386844e-01 	8.4523213e-03 	3.3387351e-03 	4.3190325e-03 	-2.1736608e-03 	-2.0423333e-03 	1.7109687e-02 	8.0550445e-03 	
1.2723254e-01 	1.0513047e+00 	-1.2813989e-01 	7.2301610e-03 	3.0616307e-03 	3.9679440e-03 	-1.8287671e-03 	-2.0990531e-03 	1.7204993e-02 	7.1298679e-03 	
1.2815643e-01 	1.0646297e+00 	-1.2600215e-01 	6.3333130e-03 	2.8365589e-03 	3.7235658e-03 	-1.5969851e-03 	-2.0471524e-03 	1.7266936e-02 	6.4467189e-03 	
1.2908032e-01 	1.0773517e+00 	-1.2312815e-01 	5.5689488e-03 	2.6358175e-03 	3.5016096e-03 	-1.4137958e-03 	-1.9808764e-03 	1.7296353e-02 	5.8531880e-03 	
1.3000421e-01 	1.0826016e+00 	-1.2567891e-01 	5.0838715e-03 	2.5234400e-03 	3.3330705e-03 	-1.2772753e-03 	-2.0021463e-03 	1.7206009e-02 	5.4701910e-03 	
1.3092810e-01 	1.0879338e+00 	-1.2663344e-01 	4.6426765e-03 	2.4280718e-03 	3.1916780e-03 	-1.1540058e-03 	-2.0000115e-03 	1.7132096e-02 	5.1312132e-03 	
1.3185199e-01 	1.0946419e+00 	-1.2351757e-01 	4.3297370e-03 	2.3560990e-03 	3.0890460e-03 	-1.0802552e-03 	-1.9361853e-03 	1.7104474e-02 	4.8874410e-03 	
1.3277588e-01 	1.0998551e+00 	-1.2216571e-01 	4.0733621e-03 	2.3051839e-03 	2.9876459e-03 	-1.0187793e-03 	-1.9017936e-03 	1.7071590e-02 	4.6830960e-03 	
1.3369977e-01 	1.1020422e+00 	-1.2348719e-01 	3.8913366e-03 	2.2902575e-03 	2.8980192e-03 	-9.6976401e-04 	-1.9117388e-03 	1.7016666e-02 	4.5398066e-03 	
1.3462366e-01 	1.1047952e+00 	-1.2301370e-01 	3.7373332e-03 	2.2786561e-03 	2.8255602e-03 	-9.3441559e-04 	-1.8970002e-03 	1.6996315e-02 	4.4207747e-03 	
1.3554755e-01 	1.1087984e+00 	-1.2033128e-01 	3.6191770e-03 	2.2661126e-03 	2.7671930e-03 	-9.1545506e-04 	-1.8512217e-03 	1.7022473e-02 	4.3262413e-03 	
1.3647144e-01 	1.1116850e+00 	-1.1911676e-01 	3.5219551e-03 	2.2658579e-03 	2.7089347e-03 	-8.9893539e-04 	-1.8295978e-03 	1.7046791e-02 	4.2483738e-03 	
1.3739533e-01 	1.1127431e+00 	-1.1982691e-01 	3.4520270e-03 	2.2840348e-03 	2.6557933e-03 	-8.8795184e-04 	-1.8399258e-03 	1.7064217e-02 	4.1959275e-03 	
1.3831922e-01 	1.1143689e+00 	-1.1948250e-01 	3.3894470e-03 	2.2957697e-03 	2.6098523e-03 	-8.8244777e-04 	-1.8350708e-03 	1.7099276e-02 	4.1475345e-03 	
1.3924311e-01 	1.1172615e+00 	-1.1713419e-01 	3.3390966e-03 	2.2938142e-03 	2.4370844e-03 	-8.8355561e-04 	-2.2358884e-03 	2.1396894e-02 	4.0349976e-03 	
1.4016700e-01 	1.1198071e+00 	-1.1529085e-01 	3.2917928e-03 	2.2949309e-03 	2.2500455e-03 	-8.8420571e-04 	-2.6887142e-03 	2.6113827e-02 	3.9183846e-03 	
1.4109089e-01 	1.1208031e+00 	-1.1567972e-01 	3.2592748e-03 	2.3100961e-03 	2.2150686e-03 	-8.8660744e-04 	-2.6921151e-03 	2.6093412e-02 	3.8922198e-03 	
1.4201478e-01 	1.1217976e+00 	-1.1605928e-01 	3.2266646e-03 	2.3252171e-03 	2.1799900e-03 	-8.8871236e-04 	-2.6952821e-03 	2.6072757e-02 	3.8659359e-03 	
1.4293867e-01 	1.1242363e+00 	-1.1414551e-01 	3.2032611e-03 	2.3183955e-03 	2.1515613e-03 	-8.9639467e-04 	-2.6457693e-03 	2.6089058e-02 	3.8366090e-03 	
1.4386256e-01 	1.1267515e+00 	-1.1212226e-01 	3.1806014e-03 	2.3105298e-03 	2.1237102e-03 	-9.0498038e-04 	-2.5937070e-03 	2.6107291e-02 	3.8074207e-03 	
1.4478645e-01 	1.1284297e+00 	-1.1147872e-01 	3.1594319e-03 	2.3092079e-03 	2.0927365e-03 	-9.1192712e-04 	-2.5741771e-03 	2.6105869e-02 	3.7806882e-03 	
1.4571034e-01 	1.1295815e+00 	-1.1163213e-01 	3.1387139e-03 	2.3113442e-03 	2.0594091e-03 	-9.1627395e-04 	-2.5735538e-03 	2.6092113e-02 	3.7547336e-03 	
1.4663423e-01 	1.1309395e+00 	-1.1136003e-01 	3.1179630e-03 	2.3085324e-03 	2.0270333e-03 	-9.1987762e-04 	-2.5631245e-03 	2.6082364e-02 	3.7267643e-03 	
1.4755812e-01 	1.1332906e+00 	-1.0961040e-01 	3.0960664e-03 	2.2887404e-03 	1.9987151e-03 	-9.2590569e-04 	-2.5185909e-03 	2.6093697e-02 	3.6917609e-03 	
1.4848201e-01 	1.1356734e+00 	-1.0789409e-01 	3.0739261e-03 	2.2693529e-03 	1.9706386e-03 	-9.3306108e-04 	-2.4746612e-03 	2.6105165e-02 	3.6569588e-03 	
1.4940590e-01 	1.1372938e+00 	-1.0737567e-01 	3.0501763e-03 	2.2545775e-03 	1.9405751e-03 	-9.3623874e-04 	-2.4577048e-03 	2.6097173e-02 	3.6226645e-03 	
1.5032979e-01 	1.1385476e+00 	-1.0735793e-01 	3.0261826e-03 	2.2411843e-03 	1.9097878e-03 	-9.3683281e-04 	-2.4519819e-03 	2.6079645e-02 	3.5885773e-03 	
1.5125368e-01 	1.1399096e+00 	-1.0719516e-01 	3.0021448e-03 	2.2262740e-03 	1.8789975e-03 	-9.3789826e-04 	-2.4429444e-03 	2.6064179e-02 	3.5537081e-03 	
1.5217757e-01 	1.1422141e+00 	-1.0568647e-01 	2.9784509e-03 	2.1965071e-03 	1.8482483e-03 	-9.4150573e-04 	-2.4032865e-03 	2.6068125e-02 	3.5116031e-03 	
1.5310146e-01 	1.1445130e+00 	-1.0417631e-01 	2.9548225e-03 	2.1666451e-03 	1.8174942e-03 	-9.4493915e-04 	-2.3635772e-03 	2.6071867e-02 	3.4694809e-03 	
1.5402535e-01 	1.1464179e+00 	-1.0323079e-01 	2.9303193e-03 	2.1383017e-03 	1.7824796e-03 	-9.4521171e-04 	-2.3368917e-03 	2.6063402e-02 	3.4255503e-03 	
1.5494924e-01 	1.1478141e+00 	-1.0312937e-01 	2.9037565e-03 	2.1133117e-03 	1.7412852e-03 	-9.4292755e-04 	-2.3298832e-03 	2.6039472e-02 	3.3791767e-03 	
1.5587313e-01 	1.1492133e+00 	-1.0303155e-01 	2.8769011e-03 	2.0888979e-03 	1.6998264e-03 	-9.4210720e-04 	-2.3229406e-03 	2.6015011e-02 	3.3328127e-03 	
1.5679702e-01 	1.1511188e+00 	-1.0217549e-01 	2.8488964e-03 	2.0567594e-03 	1.6542072e-03 	-9.4029839e-04 	-2.2985386e-03 	2.6000973e-02 	3.2799315e-03 	
1.5772091e-01 	1.1533320e+00 	-1.0084408e-01 	2.8201741e-03 	2.0190662e-03 	1.6057906e-03 	-9.3663111e-04 	-2.2630601e-03 	2.5992741e-02 	3.2225154e-03 	
1.5864480e-01 	1.1555425e+00 	-9.9511915e-02 	2.7914490e-03 	1.9811384e-03 	1.5573058e-03 	-9.3257250e-04 	-2.2275217e-03 	2.5984279e-02 	3.1649466e-03 	
1.5956869e-01 	1.1572348e+00 	-9.9030745e-02 	2.7582745e-03 	1.9464224e-03 	1.5064225e-03 	-9.2647423e-04 	-2.2114615e-03 	2.5964830e-02 	3.1055597e-03 	
1.6049258e-01 	1.1587244e+00 	-9.8870393e-02 	2.7234338e-03 	1.9131714e-03 	1.4546873e-03 	-9.2006061e-04 	-2.2027378e-03 	2.5940844e-02 	3.0456462e-03 	
1.6141647e-01 	1.1602171e+00 	-9.8708772e-02 	2.6885539e-03 	1.8797732e-03 	1.4029394e-03 	-9.1343945e-04 	-2.1939670e-03 	2.5916779e-02 	2.9856333e-03 	
1.6234036e-01 	1.1622474e+00 	-9.7803663e-02 	2.6530584e-03 	1.8405272e-03 	1.3523809e-03 	-9.0416797e-04 	-2.1690570e-03 	2.5905296e-02 	2.9229833e-03 	
1.6326425e-01 	1.1644665e+00 	-9.6633113e-02 	2.6174239e-03 	1.7995133e-03 	1.3022747e-03 	-8.9437646e-04 	-2.1384155e-03 	2.5898477e-02 	2.8596060e-03 	
1.6418814e-01 	1.1666528e+00 	-9.5466166e-02 	2.5819332e-03 	1.7590908e-03 	1.2521882e-03 	-8.8543675e-04 	-2.1077904e-03 	2.5890593e-02 	2.7966061e-03 	
1.6511203e-01 	1.1684447e+00 	-9.4919082e-02 	2.5412980e-03 	1.7199275e-03 	1.2024205e-03 	-8.7443306e-04 	-2.0910368e-03 	2.5874385e-02 	2.7318230e-03 	
1.6603592e-01 	1.1700255e+00 	-9.4719857e-02 	2.4975906e-03 	1.6811489e-03 	1.1528088e-03 	-8.6183054e-04 	-2.0820751e-03 	2.5853660e-02 	2.6657741e-03 	
1.6695981e-01 	1.1716247e+00 	-9.4513220e-02 	2.4533618e-03 	1.6415886e-03 	1.1031180e-03 	-8.4826013e-04 	-2.0729208e-03 	2.5832754e-02 	2.5990341e-03 	
1.6788370e-01 	1.1734698e+00 	-9.3946192e-02 	2.4072894e-03 	1.6003065e-03 	1.0546798e-03 	-8.3386256e-04 	-2.0565871e-03 	2.5817730e-02 	2.5311378e-03 	
1.6880759e-01 	1.1756072e+00 	-9.2914550e-02 	2.3591261e-03 	1.5571716e-03 	1.0078930e-03 	-8.1894677e-04 	-2.0309508e-03 	2.5809450e-02 	2.4620954e-03 	
1.6973148e-01 	1.1777255e+00 	-9.1884801e-02 	2.3111773e-03 	1.5143082e-03 	9.6112579e-04 	-8.0442783e-04 	-2.0053186e-03 	2.5800539e-02 	2.3933057e-03 	
1.7065537e-01 	1.1797789e+00 	-9.0953828e-02 	2.2626383e-03 	1.4715536e-03 	9.1463668e-04 	-7.8970106e-04 	-1.9818903e-03 	2.5790621e-02 	2.3244143e-03 	
1.7157926e-01 	1.1813818e+00 	-9.0724962e-02 	2.2091867e-03 	1.4289696e-03 	8.7017896e-04 	-7.7273940e-04 	-1.9741049e-03 	2.5773417e-02 	2.2541676e-03 	
1.7250315e-01 	1.1829882e+00 	-9.0494718e-02 	2.1556241e-03 	1.3862862e-03 	8.2572715e-04 	-7.5564711e-04 	-1.9662814e-03 	2.5756187e-02 	2.1838187e-03 	
1.7342704e-01 	1.1845954e+00 	-9.0264608e-02 	2.1020714e-03 	1.3436150e-03 	7.8127595e-04 	-7.3855496e-04 	-1.9584565e-03 	2.5738931e-02 	2.1134812e-03 	
1.7435093e-01 	1.1864871e+00 	-8.9558441e-02 	2.0469728e-03 	1.3005364e-03 	7.3748909e-04 	-7.2149343e-04 	-1.9398992e-03 	2.5730227e-02 	2.0424991e-03 	
1.7527483e-01 	1.1885163e+00 	-8.8644646e-02 	1.9909624e-03 	1.2571323e-03 	6.9399568e-04 	-7.0415461e-04 	-1.9166722e-03 	2.5725737e-02 	1.9710452e-03 	
1.7619872e-01 	1.1905455e+00 	-8.7730851e-02 	1.9349520e-03 	1.2137281e-03 	6.5050228e-04 	-6.8681579e-04 	-1.8934452e-03 	2.5721248e-02 	1.8995912e-03 	
1.7712261e-01 	1.1925070e+00 	-8.6917669e-02 	1.8782029e-03 	1.1701583e-03 	6.0686718e-04 	-6.6872084e-04 	-1.8721956e-03 	2.5714733e-02 	1.8276142e-03 	
1.7804650e-01 	1.1940588e+00 	-8.6674079e-02 	1.8210458e-03 	1.1276987e-03 	5.6238762e-04 	-6.4959237e-04 	-1.8625971e-03 	2.5698612e-02 	1.7555661e-03 	
1.7897039e-01 	1.1956106e+00 	-8.6430489e-02 	1.7638888e-03 	1.0852390e-03 	5.1790807e-04 	-6.3046389e-04 	-1.8529986e-03 	2.5682492e-02 	1.6835180e-03 	
1.7989428e-01 	1.1971464e+00 	-8.6186345e-02 	1.7070799e-03 	1.0428965e-03 	4.7336559e-04 	-6.1162344e-04 	-1.8433594e-03 	2.5665615e-02 	1.6116710e-03 	
1.8081817e-01 	1.1988212e+00 	-8.5656584e-02 	1.6506188e-03 	1.0011247e-03 	4.2975177e-04 	-5.9245684e-04 	-1.8276392e-03 	2.5650683e-02 	1.5407477e-03 	
1.8174206e-01 	1.2006455e+00 	-8.4835777e-02 	1.5943422e-03 	9.5987783e-04 	3.8711594e-04 	-5.7281660e-04 	-1.8057362e-03 	2.5638106e-02 	1.4706680e-03 	
1.8266595e-01 	1.2024701e+00 	-8.4014201e-02 	1.5379579e-03 	9.1859117e-04 	3.4448326e-04 	-5.5310746e-04 	-1.7837979e-03 	2.5625424e-02 	1.4005162e-03 	
1.8358984e-01 	1.2042956e+00 	-8.3189829e-02 	1.4811817e-03 	8.7715974e-04 	3.0186202e-04 	-5.3314752e-04 	-1.7617307e-03 	2.5612361e-02 	1.3301017e-03 	
1.8451373e-01 	1.2057598e+00 	-8.2770103e-02 	1.4250085e-03 	8.3776519e-04 	2.6145337e-04 	-5.1389635e-04 	-1.7492248e-03 	2.5591179e-02 	1.2621135e-03 	
1.8543762e-01 	1.2070797e+00 	-8.2512100e-02 	1.3690763e-03 	7.9918471e-04 	2.2192900e-04 	-4.9492846e-04 	-1.7405402e-03 	2.5566752e-02 	1.1950950e-03 	
1.8636151e-01 	1.2083928e+00 	-8.2253398e-02 	1.3133199e-03 	7.6060560e-04 	1.8235585e-04 	-4.7606127e-04 	-1.7318230e-03 	2.5541925e-02 	1.1281407e-03 	
1.8728540e-01 	1.2096987e+00 	-8.1993971e-02 	1.2577461e-03 	7.2202792e-04 	1.4273199e-04 	-4.5729876e-04 	-1.7230719e-03 	2.5516681e-02 	1.0612530e-03 	
1.8820929e-01 	1.2111906e+00 	-8.1342531e-02 	1.2020258e-03 	6.8625145e-04 	1.0918501e-04 	-4.3847356e-04 	-1.7068424e-03 	2.5495419e-02 	9.9873113e-04 	
1.8913318e-01 	1.2127262e+00 	-8.0599259e-02 	1.1462712e-03 	6.5113121e-04 	7.7061589e-05 	-4.1963368e-04 	-1.6888610e-03 	2.5475089e-02 	9.3723201e-04 	
1.9005707e-01 	1.2142606e+00 	-7.9854868e-02 	1.0903611e-03 	6.1598553e-04 	4.4953015e-05 	-4.0073744e-04 	-1.6708308e-03 	2.5454519e-02 	8.7564981e-04 	
1.9098096e-01 	1.2157938e+00 	-7.9109071e-02 	1.0342555e-03 	5.8080792e-04 	1.2863083e-05 	-3.8177040e-04 	-1.6527394e-03 	2.5433649e-02 	8.1396326e-04 	
1.9190485e-01 	1.2169633e+00 	-7.8737416e-02 	9.8046088e-04 	5.4957930e-04 	-1.3600316e-05 	-3.6341336e-04 	-1.6424530e-03 	2.5406639e-02 	7.5821993e-04 	
1.9282874e-01 	1.2180303e+00 	-7.8471324e-02 	9.2731825e-04 	5.1946487e-04 	-3.8476191e-05 	-3.4522842e-04 	-1.6343687e-03 	2.5377898e-02 	7.0415347e-04 	
1.9375263e-01 	1.2190973e+00 	-7.8205231e-02 	8.7417575e-04 	4.8935040e-04 	-6.3352145e-05 	-3.2704354e-04 	-1.6262844e-03 	2.5349156e-02 	6.5008700e-04 	
1.9467652e-01 	1.2201571e+00 	-7.7937504e-02 	8.2117031e-04 	4.5918020e-04 	-8.8311246e-05 	-3.0891646e-04 	-1.6181384e-03 	2.5319801e-02 	5.9601964e-04 	
1.9560041e-01 	1.2212333e+00 	-7.7409841e-02 	7.7136639e-04 	4.3181753e-04 	-1.1057575e-04 	-2.9136977e-04 	-1.6041798e-03 	2.5289637e-02 	5.4630408e-04 	
1.9652430e-01 	1.2223195e+00 	-7.6723751e-02 	7.2351374e-04 	4.0616598e-04 	-1.3119796e-04 	-2.7417681e-04 	-1.5866784e-03 	2.5258980e-02 	4.9924088e-04 	
1.9744819e-01 	1.2234056e+00 	-7.6037661e-02 	6.7566109e-04 	3.8051444e-04 	-1.5182016e-04 	-2.5698385e-04 	-1.5691770e-03 	2.5228323e-02 	4.5217768e-04 	
1.9837208e-01 	1.2244917e+00 	-7.5351452e-02 	6.2779232e-04 	3.5486121e-04 	-1.7244137e-04 	-2.3978665e-04 	-1.5516706e-03 	2.5197634e-02 	4.0510608e-04 	
1.9929597e-01 	1.2254022e+00 	-7.4797766e-02 	5.8271272e-04 	3.3098932e-04 	-1.9145582e-04 	-2.2342452e-04 	-1.5368426e-03 	2.5162592e-02 	3.6112311e-04 	
2.0021986e-01 	1.2259633e+00 	-7.4513900e-02 	5.4367841e-04 	3.1074663e-04 	-2.0726439e-04 	-2.0885683e-04 	-1.5275380e-03 	2.5119649e-02 	3.2358033e-04 	
2.0114375e-01 	1.2265244e+00 	-7.4230035e-02 	5.0464410e-04 	2.9050395e-04 	-2.2307295e-04 	-1.9428914e-04 	-1.5182334e-03 	2.5076706e-02 	2.8603755e-04 	
2.0206764e-01 	1.2270857e+00 	-7.3946282e-02 	4.6561765e-04 	2.7026511e-04 	-2.3887656e-04 	-1.7972364e-04 	-1.5089306e-03 	2.5033763e-02 	2.4850310e-04 	
2.0299153e-01 	1.2276474e+00 	-7.3662757e-02 	4.2660710e-04 	2.5003403e-04 	-2.5467014e-04 	-1.6516257e-04 	-1.4996313e-03 	2.4990820e-02 	2.1098549e-04 	
2.0391542e-01 	1.2281678e+00 	-7.3052766e-02 	3.9639993e-04 	2.3407847e-04 	-2.6554219e-04 	-1.5325826e-04 	-1.4840045e-03 	2.4948109e-02 	1.8246810e-04 	
2.0483931e-01 	1.2286821e+00 	-7.2411261e-02 	3.6705169e-04 	2.1852445e-04 	-2.7595122e-04 	-1.4161328e-04 	-1.4677482e-03 	2.4905173e-02 	1.5481246e-04 	
2.0576320e-01 	1.2291965e+00 	-7.1769756e-02 	3.3770345e-04 	2.0297042e-04 	-2.8636024e-04 	-1.2996830e-04 	-1.4514920e-03 	2.4862238e-02 	1.2715682e-04 	
2.0668709e-01 	1.2297109e+00 	-7.1128251e-02 	3.0835520e-04 	1.8741640e-04 	-2.9676926e-04 	-1.1832332e-04 	-1.4352357e-03 	2.4819302e-02 	9.9501173e-05 	
2.0761098e-01 	1.2300699e+00 	-7.0611355e-02 	2.8233944e-04 	1.7346561e-04 	-3.0541982e-04 	-1.0786711e-04 	-1.4216471e-03 	2.4774016e-02 	7.5192616e-05 	
2.0853487e-01 	1.2301475e+00 	-7.0320308e-02 	2.6236374e-04 	1.6242064e-04 	-3.1088320e-04 	-9.9565528e-05 	-1.4128937e-03 	2.4724470e-02 	5.6950591e-05 	
2.0945876e-01 	1.2302250e+00 	-7.0029262e-02 	2.4238805e-04 	1.5137567e-04 	-3.1634659e-04 	-9.1263942e-05 	-1.4041402e-03 	2.4674924e-02 	3.8708566e-05 	
2.1038265e-01 	1.2303025e+00 	-6.9735131e-02 	2.2230651e-04 	1.4031000e-04 	-3.2181574e-04 	-8.2930738e-05 	-1.3953015e-03 	2.4624975e-02 	2.0400387e-05 	
2.1130654e-01 	1.2303800e+00 	-6.9440929e-02 	2.0222252e-04 	1.2924385e-04 	-3.2728503e-04 	-7.4596801e-05 	-1.3864607e-03 	2.4575017e-02 	2.0906753e-06 	
2.1223043e-01 	1.2304474e+00 	-6.8946116e-02 	1.8633274e-04 	1.2035910e-04 	-3.3131367e-04 	-6.7939540e-05 	-1.3738137e-03 	2.4525094e-02 	-1.2310913e-05 	
2.1315432e-01 	1.2305097e+00 	-6.8350272e-02 	1.7255522e-04 	1.1257295e-04 	-3.3461677e-04 	-6.2126685e-05 	-1.3592497e-03 	2.4475189e-02 	-2.4744297e-05 	
2.1407821e-01 	1.2305719e+00 	-6.7754429e-02 	1.5877771e-04 	1.0478680e-04 	-3.3791987e-04 	-5.6313830e-05 	-1.3446857e-03 	2.4425283e-02 	-3.7177680e-05 	
2.1500210e-01 	1.2306342e+00 	-6.7158585e-02 	1.4500020e-04 	9.7000644e-05 	-3.4122297e-04 	-5.0500975e-05 	-1.3301218e-03 	2.4375378e-02 	-4.9611064e-05 	
2.1592599e-01 	1.2306974e+00 	-6.6562373e-02 	1.3123620e-04 	8.9221006e-05 	-3.4452243e-04 	-4.4693085e-05 	-1.3155532e-03 	2.4325502e-02 	-6.2032611e-05 	
2.1684988e-01 	1.2305258e+00 	-6.6223430e-02 	1.2119372e-04 	8.3673881e-05 	-3.4658665e-04 	-4.0467000e-05 	-1.3062279e-03 	2.4269898e-02 	-7.0859525e-05 	
2.1777377e-01 	1.2303071e+00 	-6.5933888e-02 	1.1185510e-04 	7.8547881e-05 	-3.4841064e-04 	-3.6538535e-05 	-1.2978983e-03 	2.4212944e-02 	-7.9003830e-05 	
2.1869766e-01 	1.2300884e+00 	-6.5644346e-02 	1.0251648e-04 	7.3421880e-05 	-3.5023463e-04 	-3.2610070e-05 	-1.2895688e-03 	2.4155989e-02 	-8.7148135e-05 	
2.1962155e-01 	1.2298698e+00 	-6.5354804e-02 	9.3177864e-05 	6.8295879e-05 	-3.5205862e-04 	-2.8681605e-05 	-1.2812392e-03 	2.4099035e-02 	-9.5292440e-05 	
2.2054544e-01 	1.2296511e+00 	-6.5065262e-02 	8.3839244e-05 	6.3169878e-05 	-3.5388261e-04 	-2.4753140e-05 	-1.2729096e-03 	2.4042080e-02 	-1.0343674e-04 	
2.2146933e-01 	1.2295049e+00 	-6.4554956e-02 	7.7865131e-05 	5.9547792e-05 	-3.5451762e-04 	-2.2300790e-05 	-1.2602368e-03 	2.3986987e-02 	-1.0855235e-04 	
2.2239322e-01 	1.2293692e+00 	-6.4012836e-02 	7.2375858e-05 	5.6142426e-05 	-3.5498130e-04 	-2.0061153e-05 	-1.2469381e-03 	2.3932162e-02 	-1.1323151e-04 	
2.2331711e-01 	1.2292334e+00 	-6.3470717e-02 	6.6886585e-05 	5.2737059e-05 	-3.5544497e-04 	-1.7821516e-05 	-1.2336394e-03 	2.3877337e-02 	-1.1791066e-04 	
2.2424100e-01 	1.2290977e+00 	-6.2928597e-02 	6.1397312e-05 	4.9331693e-05 	-3.5590864e-04 	-1.5581879e-05 	-1.2203407e-03 	2.3822512e-02 	-1.2258982e-04 	
2.2516490e-01 	1.2289619e+00 	-6.2386477e-02 	5.5908039e-05 	4.5926327e-05 	-3.5637232e-04 	-1.3342243e-05 	-1.2070419e-03 	2.3767687e-02 	-1.2726898e-04 	
2.2608879e-01 	1.2286860e+00 	-6.2049096e-02 	5.2410038e-05 	4.3648745e-05 	-3.5590175e-04 	-1.2012749e-05 	-1.1978342e-03 	2.3711226e-02 	-1.2992148e-04 	
2.2701268e-01 	1.2283686e+00 	-6.1772620e-02 	4.9506037e-05 	4.1706903e-05 	-3.5515388e-04 	-1.0954599e-05 	-1.1898446e-03 	2.3654306e-02 	-1.3197047e-04 	
2.2793657e-01 	1.2280513e+00 	-6.1496144e-02 	4.6602037e-05 	3.9765061e-05 	-3.5440601e-04 	-9.8964481e-06 	-1.1818551e-03 	2.3597387e-02 	-1.3401945e-04 	
2.2886046e-01 	1.2277339e+00 	-6.1219668e-02 	4.3698036e-05 	3.7823219e-05 	-3.5365814e-04 	-8.8382975e-06 	-1.1738655e-03 	2.3540467e-02 	-1.3606844e-04 	
2.2978435e-01 	1.2274166e+00 	-6.0943192e-02 	4.0794035e-05 	3.5881377e-05 	-3.5291026e-04 	-7.7801469e-06 	-1.1658759e-03 	2.3483547e-02 	-1.3811743e-04 	
2.3070824e-01 	1.2271457e+00 	-6.0552697e-02 	3.8554356e-05 	3.4271991e-05 	-3.5209886e-04 	-7.1050970e-06 	-1.1558718e-03 	2.3427492e-02 	-1.3963626e-04 	
2.3163213e-01 	1.2269162e+00 	-6.0060595e-02 	3.6906675e-05 	3.2958867e-05 	-3.5123085e-04 	-6.7714410e-06 	-1.1440724e-03 	2.3372208e-02 	-1.4068265e-04 	
2.3255602e-01 	1.2266867e+00 	-5.9568494e-02 	3.5258994e-05 	3.1645743e-05 	-3.5036284e-04 	-6.4377849e-06 	-1.1322729e-03 	2.3316923e-02 	-1.4172905e-04 	
2.3347991e-01 	1.2264572e+00 	-5.9076392e-02 	3.3611314e-05 	3.0332619e-05 	-3.4949482e-04 	-6.1041289e-06 	-1.1204735e-03 	2.3261639e-02 	-1.4277544e-04 	
2.3440380e-01 	1.2262288e+00 	-5.8583986e-02 	3.1965570e-05 	2.9020755e-05 	-3.4862879e-04 	-5.7712654e-06 	-1.1086712e-03 	2.3206417e-02 	-1.4382123e-04 	
2.3532769e-01 	1.2259835e+00 	-5.8124990e-02 	3.0409127e-05 	2.7794808e-05 	-3.4773795e-04 	-5.4567960e-06 	-1.0975341e-03 	2.3151054e-02 	-1.4476701e-04 	
2.3625158e-01 	1.2256289e+00 	-5.7865438e-02 	2.9359400e-05 	2.7062173e-05 	-3.4668205e-04 	-5.2429251e-06 	-1.0903377e-03 	2.3094253e-02 	-1.4513024e-04 	
2.3717547e-01 	1.2252743e+00 	-5.7605869e-02 	2.8309474e-05 	2.6329531e-05 	-3.4562558e-04 	-5.0290916e-06 	-1.0831402e-03 	2.3037432e-02 	-1.4549329e-04 	
2.3809936e-01 	1.2249184e+00 	-5.7346112e-02 	2.7257242e-05 	2.5596804e-05 	-3.4456246e-04 	-4.8156917e-06 	-1.0759297e-03 	2.2980372e-02 	-1.4585421e-04 	
2.3902325e-01 	1.2245624e+00 	-5.7086355e-02 	2.6205010e-05 	2.4864076e-05 	-3.4349935e-04 	-4.6022918e-06 	-1.0687192e-03 	2.2923312e-02 	-1.4621513e-04 	
2.3994714e-01 	1.2242065e+00 	-5.6826597e-02 	2.5152779e-05 	2.4131349e-05 	-3.4243623e-04 	-4.3888918e-06 	-1.0615087e-03 	2.2866252e-02 	-1.4657605e-04 	
2.4087103e-01 	1.2239355e+00 	-5.6453681e-02 	2.4431358e-05 	2.3515395e-05 	-3.4122341e-04 	-4.2254947e-06 	-1.0522978e-03 	2.2811578e-02 	-1.4663833e-04 	
2.4179492e-01 	1.2237165e+00 	-5.6011361e-02 	2.3912833e-05 	2.2971062e-05 	-3.3991877e-04 	-4.0927656e-06 	-1.0418601e-03 	2.2758368e-02 	-1.4651744e-04 	
2.4271881e-01 	1.2234996e+00 	-5.5568531e-02 	2.3397603e-05 	2.2426659e-05 	-3.3861918e-04 	-3.9599886e-06 	-1.0314191e-03 	2.2705319e-02 	-1.4639746e-04 	
2.4364270e-01 	1.2232833e+00 	-5.5125538e-02 	2.2883427e-05 	2.1882233e-05 	-3.3732122e-04 	-3.8271963e-06 	-1.0209772e-03 	2.2652323e-02 	-1.4627778e-04 	
2.4456659e-01 	1.2230670e+00 	-5.4682545e-02 	2.2369251e-05 	2.1337808e-05 	-3.3602326e-04 	-3.6944040e-06 	-1.0105352e-03 	2.2599326e-02 	-1.4615810e-04 	
2.4549048e-01 	1.2228507e+00 	-5.4239552e-02 	2.1855074e-05 	2.0793382e-05 	-3.3472530e-04 	-3.5616116e-06 	-1.0000932e-03 	2.2546330e-02 	-1.4603842e-04 	
2.4641437e-01 	1.2224954e+00 	-5.3987205e-02 	2.1474537e-05 	2.0443289e-05 	-3.3345577e-04 	-3.4576483e-06 	-9.9333359e-04 	2.2491384e-02 	-1.4576897e-04 	
2.4733826e-01 	1.2221328e+00 	-5.3744813e-02 	2.1100978e-05 	2.0103344e-05 	-3.3218773e-04 	-3.3551903e-06 	-9.8676621e-04 	2.2436336e-02 	-1.4549171e-04 	
2.4826215e-01 	1.2217702e+00 	-5.3502421e-02 	2.0727418e-05 	1.9763398e-05 	-3.3091969e-04 	-3.2527323e-06 	-9.8019882e-04 	2.2381288e-02 	-1.4521444e-04 	
2.4918604e-01 	1.2214076e+00 	-5.3260029e-02 	2.0353859e-05 	1.9423452e-05 	-3.2965166e-04 	-3.1502743e-06 	-9.7363144e-04 	2.2326240e-02 	-1.4493717e-04 	
2.5010993e-01 	1.2210465e+00 	-5.3018017e-02 	1.9980997e-05 	1.9083191e-05 	-3.2838866e-04 	-3.0476841e-06 	-9.6707336e-04 	2.2271336e-02 	-1.4466224e-04 	
2.5103382e-01 	1.2207059e+00 	-5.2755002e-02 	1.9625669e-05 	1.8751549e-05 	-3.2712928e-04 	-2.9533288e-06 	-9.6015991e-04 	2.2216979e-02 	-1.4437603e-04 	
2.5195771e-01 	1.2204905e+00 	-5.2355313e-02 	1.9380000e-05 	1.8476689e-05 	-3.2587110e-04 	-2.9124870e-06 	-9.5092139e-04 	2.2165515e-02 	-1.4400720e-04 	
2.5288160e-01 	1.2202752e+00 	-5.1955624e-02 	1.9134332e-05 	1.8201829e-05 	-3.2461292e-04 	-2.8716453e-06 	-9.4168287e-04 	2.2114051e-02 	-1.4363838e-04 	
2.5380549e-01 	1.2200599e+00 	-5.1555934e-02 	1.8888663e-05 	1.7926969e-05 	-3.2335473e-04 	-2.8308036e-06 	-9.3244435e-04 	2.2062588e-02 	-1.4326955e-04 	
2.5472938e-01 	1.2198446e+00 	-5.1156245e-02 	1.8642995e-05 	1.7652109e-05 	-3.2209655e-04 	-2.7899619e-06 	-9.2320582e-04 	2.2011124e-02 	-1.4290072e-04 	
2.5565327e-01 	1.2196287e+00 	-5.0756416e-02 	1.8396965e-05 	1.7377363e-05 	-3.2083553e-04 	-2.7492065e-06 	-9.1396050e-04 	2.1959565e-02 	-1.4253060e-04 	
2.5657716e-01 	1.2193867e+00 	-5.0386226e-02 	1.8160405e-05 	1.7118478e-05 	-3.1957084e-04 	-2.7003511e-06 	-9.0527567e-04 	2.1907636e-02 	-1.4214598e-04 	
2.5750105e-01 	1.2190208e+00 	-5.0161250e-02 	1.7971739e-05 	1.6935573e-05 	-3.1830411e-04 	-2.6114144e-06 	-8.9935306e-04 	2.1854434e-02 	-1.4169840e-04 	
2.5842494e-01 	1.2186556e+00 	-4.9936404e-02 	1.7783278e-05 	1.6752350e-05 	-3.1703969e-04 	-2.5223587e-06 	-8.9343378e-04 	2.1801305e-02 	-1.4125203e-04 	
2.5934883e-01 	1.2182903e+00 	-4.9711559e-02 	1.7594817e-05 	1.6569128e-05 	-3.1577526e-04 	-2.4333031e-06 	-8.8751450e-04 	2.1748176e-02 	-1.4080566e-04 	
2.6027272e-01 	1.2179251e+00 	-4.9486714e-02 	1.7406356e-05 	1.6385905e-05 	-3.1451084e-04 	-2.3442475e-06 	-8.8159522e-04 	2.1695046e-02 	-1.4035929e-04 	
2.6119661e-01 	1.2175599e+00 	-4.9261869e-02 	1.7217895e-05 	1.6202683e-05 	-3.1324642e-04 	-2.2551918e-06 	-8.7567595e-04 	2.1641917e-02 	-1.3991292e-04 	
2.6212050e-01 	1.2172030e+00 	-4.9029555e-02 	1.7032415e-05 	1.6021063e-05 	-3.1198231e-04 	-2.1685949e-06 	-8.6963320e-04 	2.1588977e-02 	-1.3946441e-04 	
2.6304439e-01 	1.2169915e+00 	-4.8668468e-02 	1.6898327e-05 	1.5867069e-05 	-3.1072362e-04 	-2.1243874e-06 	-8.6146169e-04 	2.1539306e-02 	-1.3897911e-04 	
2.6396828e-01 	1.2167803e+00 	-4.8307248e-02 	1.6764325e-05 	1.5712891e-05 	-3.0946645e-04 	-2.0801434e-06 	-8.5328917e-04 	2.1489683e-02 	-1.3849462e-04 	
2.6489217e-01 	1.2165715e+00 	-4.7945315e-02 	1.6630788e-05 	1.5557732e-05 	-3.0821741e-04 	-2.0357045e-06 	-8.4511131e-04 	2.1440314e-02 	-1.3801445e-04 	
2.6581606e-01 	1.2163627e+00 	-4.7583383e-02 	1.6497251e-05 	1.5402573e-05 	-3.0696837e-04 	-1.9912656e-06 	-8.3693344e-04 	2.1390946e-02 	-1.3753427e-04 	
2.6673995e-01 	1.2161538e+00 	-4.7221450e-02 	1.6363714e-05 	1.5247414e-05 	-3.0571933e-04 	-1.9468267e-06 	-8.2875558e-04 	2.1341577e-02 	-1.3705410e-04 	
2.6766384e-01 	1.2159450e+00 	-4.6859517e-02 	1.6230177e-05 	1.5092255e-05 	-3.0447029e-04 	-1.9023878e-06 	-8.2057771e-04 	2.1292208e-02 	-1.3657393e-04 	
2.6858773e-01 	1.2156134e+00 	-4.6618732e-02 	1.6110576e-05 	1.4976714e-05 	-3.0324775e-04 	-1.8462276e-06 	-8.1465076e-04 	2.1241373e-02 	-1.3608023e-04 	
2.6951162e-01 	1.2152481e+00 	-4.6411203e-02 	1.5994801e-05 	1.4872048e-05 	-3.0203249e-04 	-1.7868497e-06 	-8.0934172e-04 	2.1190135e-02 	-1.3558282e-04 	
2.7043551e-01 	1.2148827e+00 	-4.6203673e-02 	1.5879026e-05 	1.4767383e-05 	-3.0081723e-04 	-1.7274717e-06 	-8.0403268e-04 	2.1138897e-02 	-1.3508541e-04 	
2.7135940e-01 	1.2145191e+00 	-4.5996437e-02 	1.5763813e-05 	1.4661820e-05 	-2.9960923e-04 	-1.6678870e-06 	-7.9873192e-04 	2.1087892e-02 	-1.3459180e-04 	
2.7228329e-01 	1.2141561e+00 	-4.5789308e-02 	1.5648808e-05 	1.4555927e-05 	-2.9840391e-04 	-1.6082261e-06 	-7.9343422e-04 	2.1036972e-02 	-1.3409959e-04 	
2.7320718e-01 	1.2137930e+00 	-4.5582179e-02 	1.5533802e-05 	1.4450033e-05 	-2.9719858e-04 	-1.5485652e-06 	-7.8813651e-04 	2.0986053e-02 	-1.3360737e-04 	
2.7413107e-01 	1.2134828e+00 	-4.5333952e-02 	1.5430856e-05 	1.4349504e-05 	-2.9599604e-04 	-1.4968971e-06 	-7.8218319e-04 	2.0936322e-02 	-1.3310784e-04 	
2.7505497e-01 	1.2132733e+00 	-4.5007285e-02 	1.5350927e-05 	1.4259212e-05 	-2.9479879e-04 	-1.4604840e-06 	-7.7497858e-04 	2.0888861e-02 	-1.3259433e-04 	
2.7597886e-01 	1.2130639e+00 	-4.4680619e-02 	1.5270998e-05 	1.4168920e-05 	-2.9360155e-04 	-1.4240708e-06 	-7.6777397e-04 	2.0841401e-02 	-1.3208082e-04 	
2.7690275e-01 	1.2128544e+00 	-4.4353952e-02 	1.5191068e-05 	1.4078628e-05 	-2.9240431e-04 	-1.3876577e-06 	-7.6056937e-04 	2.0793940e-02 	-1.3156731e-04 	
2.7782664e-01 	1.2126460e+00 	-4.4026920e-02 	1.5111318e-05 	1.3987859e-05 	-2.9121131e-04 	-1.3512110e-06 	-7.5336194e-04 	2.0746618e-02 	-1.3105607e-04 	
2.7875053e-01 	1.2124392e+00 	-4.3699374e-02 	1.5031818e-05 	1.3896422e-05 	-2.9002426e-04 	-1.3147172e-06 	-7.4615054e-04 	2.0699492e-02 	-1.3054801e-04 	
2.7967442e-01 	1.2122324e+00 	-4.3371828e-02 	1.4952318e-05 	1.3804986e-05 	-2.8883721e-04 	-1.2782234e-06 	-7.3893915e-04 	2.0652366e-02 	-1.3003995e-04 	
2.8059831e-01 	1.2119178e+00 	-4.3142280e-02 	1.4876223e-05 	1.3734359e-05 	-2.8767683e-04 	-1.2363556e-06 	-7.3350784e-04 	2.0604088e-02 	-1.2953313e-04 	
2.8152220e-01 	1.2115603e+00 	-4.2951772e-02 	1.4801485e-05 	1.3672022e-05 	-2.8652708e-04 	-1.1923470e-06 	-7.2878568e-04 	2.0555350e-02 	-1.2902679e-04 	
2.8244609e-01 	1.2112028e+00 	-4.2761263e-02 	1.4726747e-05 	1.3609685e-05 	-2.8537733e-04 	-1.1483383e-06 	-7.2406351e-04 	2.0506612e-02 	-1.2852045e-04 	
2.8336998e-01 	1.2108453e+00 	-4.2570755e-02 	1.4652009e-05 	1.3547349e-05 	-2.8422758e-04 	-1.1043296e-06 	-7.1934135e-04 	2.0457874e-02 	-1.2801411e-04 	
2.8429387e-01 	1.2104882e+00 	-4.2380301e-02 	1.4577363e-05 	1.3484803e-05 	-2.8307977e-04 	-1.0602891e-06 	-7.1462090e-04 	2.0409200e-02 	-1.2750880e-04 	
2.8521776e-01 	1.2101329e+00 	-4.2190082e-02 	1.4503119e-05 	1.3421353e-05 	-2.8194042e-04 	-1.0161102e-06 	-7.0990789e-04 	2.0360806e-02 	-1.2700797e-04 	
2.8614165e-01 	1.2097777e+00 	-4.1999864e-02 	1.4428875e-05 	1.3357903e-05 	-2.8080106e-04 	-9.7193127e-07 	-7.0519488e-04 	2.0312412e-02 	-1.2650714e-04 	
2.8706554e-01 	1.2095533e+00 	-4.1716147e-02 	1.4372389e-05 	1.3302396e-05 	-2.7967886e-04 	-9.4207590e-07 	-6.9904283e-04 	2.0266932e-02 	-1.2600204e-04 	
2.8798943e-01 	1.2093447e+00 	-4.1421121e-02 	1.4318051e-05 	1.3247849e-05 	-2.7855873e-04 	-9.1395291e-07 	-6.9271674e-04 	2.0221805e-02 	-1.2549641e-04 	
2.8891332e-01 	1.2091361e+00 	-4.1126096e-02 	1.4263712e-05 	1.3193301e-05 	-2.7743860e-04 	-8.8582991e-07 	-6.8639065e-04 	2.0176677e-02 	-1.2499079e-04 	