VARIABLES = "N" "h=sqrt(1/N)" "CL" "CD" "CDp" "CDv" "CMy"
# Note: CFL3D using 2nd order advection for the turbulence model
zone, t="CFL3D no PV, Family II, SA model, 10 deg, 2nd order turb advection"
 14680064  .000261 0.10908536861E+01  0.12271549926E-01  0.60657647377E-02  0.62057851883E-02  0.68042030939E-02
  3670016  .000522 0.10907132965E+01  0.12276226337E-01  0.60704776725E-02  0.62057486648E-02  0.68314574012E-02
   917504  .00104  0.10901477249E+01  0.12298112613E-01  0.60926717260E-02  0.62054408871E-02  0.69382075543E-02
   229376  .00209  0.10895756871E+01  0.12402564791E-01  0.61999219483E-02  0.62026428424E-02  0.69799799721E-02
    57344  .00418  0.10890346717E+01  0.12874777386E-01  0.66881090634E-02  0.61866683223E-02  0.67155804862E-02
    14336  .00835  0.10850207185E+01  0.15029162146E-01  0.89379899119E-02  0.60911722340E-02  0.57621158162E-02
