# Results on finest family II grid (7169x2049)
# Note for CFL3D the values at zone interfaces are NOT accurately extracted from the cell-center data
# (they are therefore skipped in this data file)
VARIABLES = "x" "z" "cp"
ZONE T="CFL3D"
 1.000000000E+00 0.000000000E+00 1.876316369E-01
 9.999876022E-01 -1.755868311E-06 1.873402297E-01
 9.999751449E-01 -3.522341558E-06 1.874514967E-01
 9.999626279E-01 -5.299483291E-06 1.867627352E-01
 9.999500513E-01 -7.087357062E-06 1.877852827E-01
 9.999373555E-01 -8.886026990E-06 1.877746880E-01
 9.999246001E-01 -1.069555674E-05 1.882886142E-01
 9.999117851E-01 -1.251601225E-05 1.882303357E-01
 9.998988509E-01 -1.434745809E-05 1.883839816E-01
 9.998858571E-01 -1.618995884E-05 1.883468926E-01
 9.998728037E-01 -1.804358180E-05 1.884051710E-01
 9.998596907E-01 -1.990839337E-05 1.884104759E-01
 9.998464584E-01 -2.178445720E-05 1.884475648E-01
 9.998331070E-01 -2.367184425E-05 1.884581596E-01
 9.998197556E-01 -2.557061998E-05 1.884793490E-01
 9.998062849E-01 -2.748086081E-05 1.884899437E-01
 9.997927547E-01 -2.940263221E-05 1.885005385E-01
 9.997791052E-01 -3.133600330E-05 1.885005385E-01
 9.997653961E-01 -3.328104867E-05 1.885005385E-01
 9.997515678E-01 -3.523783016E-05 1.884952486E-01
 9.997377396E-01 -3.720642053E-05 1.884899437E-01
 9.997237325E-01 -3.918689254E-05 1.884846389E-01
 9.997097254E-01 -4.117931530E-05 1.884740442E-01
 9.996955395E-01 -4.318376159E-05 1.884581596E-01
 9.996813536E-01 -4.520030052E-05 1.884422600E-01
 9.996670485E-01 -4.722900485E-05 1.884263605E-01
 9.996526241E-01 -4.926994734E-05 1.884051710E-01
 9.996381998E-01 -5.132320075E-05 1.883839816E-01
 9.996235967E-01 -5.338883784E-05 1.883627921E-01
 9.996089339E-01 -5.546693501E-05 1.883362979E-01
 9.995942116E-01 -5.755756501E-05 1.883151084E-01
 9.995793700E-01 -5.966080425E-05 1.882833093E-01
 9.995644689E-01 -6.177672913E-05 1.882568300E-01
 9.995494485E-01 -6.390541967E-05 1.882250309E-01
 9.995343685E-01 -6.604693772E-05 1.881932467E-01
 9.995191693E-01 -6.820137787E-05 1.881614625E-01
 9.995038509E-01 -7.036880561E-05 1.881296635E-01
 9.994884729E-01 -7.254930097E-05 1.880978793E-01
 9.994730353E-01 -7.474294398E-05 1.880607903E-01
 9.994574189E-01 -7.694981468E-05 1.880237013E-01
 9.994418025E-01 -7.916999311E-05 1.879866123E-01
 9.994260073E-01 -8.140354475E-05 1.879495233E-01
 9.994101524E-01 -8.365057147E-05 1.879071444E-01
 9.993942380E-01 -8.591113874E-05 1.878700554E-01
 9.993782043E-01 -8.818533388E-05 1.878276765E-01
 9.993620515E-01 -9.047322965E-05 1.877852827E-01
 9.993458390E-01 -9.277492063E-05 1.877429038E-01
 9.993295074E-01 -9.509047959E-05 1.877005100E-01
 9.993130565E-01 -9.741999384E-05 1.876581311E-01
 9.992965460E-01 -9.976354340E-05 1.876104474E-01
 9.992798567E-01 -1.021212156E-04 1.875680536E-01
 9.992631674E-01 -1.044930978E-04 1.875203699E-01
 9.992462993E-01 -1.068792626E-04 1.874726862E-01
 9.992293715E-01 -1.092798047E-04 1.874303073E-01
 9.992123246E-01 -1.116948115E-04 1.873826236E-01
 9.991952181E-01 -1.141243702E-04 1.873349398E-01
 9.991779327E-01 -1.165685535E-04 1.872819513E-01
 9.991605878E-01 -1.190274706E-04 1.872342676E-01
 9.991431236E-01 -1.215011871E-04 1.871865839E-01
 9.991255999E-01 -1.239898120E-04 1.871336102E-01
 9.991079569E-01 -1.264934108E-04 1.870859265E-01
 9.990901351E-01 -1.290120999E-04 1.870329380E-01
 9.990722537E-01 -1.315459376E-04 1.869799644E-01
 9.990543127E-01 -1.340950548E-04 1.869269758E-01
 9.990361929E-01 -1.366595097E-04 1.868792921E-01
 9.990179539E-01 -1.392393897E-04 1.868263185E-01
 9.989996552E-01 -1.418348256E-04 1.867680252E-01
 9.989812374E-01 -1.444458612E-04 1.867150515E-01
 9.989627004E-01 -1.470726274E-04 1.866620630E-01
 9.989440441E-01 -1.497152116E-04 1.866090894E-01
 9.989252687E-01 -1.523736864E-04 1.865508109E-01
 9.989064336E-01 -1.550481684E-04 1.864978224E-01
 9.988874197E-01 -1.577387447E-04 1.864395440E-01
 9.988682866E-01 -1.604455174E-04 1.863865703E-01
 9.988490939E-01 -1.631685736E-04 1.863282770E-01
 9.988297820E-01 -1.659080008E-04 1.862699986E-01
 9.988102913E-01 -1.686639298E-04 1.862117201E-01
 9.987907410E-01 -1.714364189E-04 1.861587465E-01
 9.987710714E-01 -1.742255990E-04 1.861004531E-01
 9.987512231E-01 -1.770315575E-04 1.860421747E-01
 9.987313151E-01 -1.798543963E-04 1.859786063E-01
 9.987112880E-01 -1.826942025E-04 1.859203279E-01
 9.986910820E-01 -1.855510927E-04 1.858620346E-01
 9.986708164E-01 -1.884251687E-04 1.858037561E-01
 9.986503720E-01 -1.913165179E-04 1.857401878E-01
 9.986298680E-01 -1.942252711E-04 1.856819093E-01
 9.986091852E-01 -1.971515012E-04 1.856236160E-01
 9.985883832E-01 -2.000953100E-04 1.855600476E-01
 9.985674620E-01 -2.030568430E-04 1.854964644E-01
 9.985464811E-01 -2.060361585E-04 1.854381859E-01
 9.985252619E-01 -2.090333874E-04 1.853746027E-01
 9.985039830E-01 -2.120486461E-04 1.853110343E-01
 9.984825850E-01 -2.150820073E-04 1.852527559E-01
 9.984610081E-01 -2.181336022E-04 1.851891726E-01
 9.984393716E-01 -2.212035470E-04 1.851255894E-01
 9.984175563E-01 -2.242919290E-04 1.850620210E-01
 9.983955622E-01 -2.273988648E-04 1.849984378E-01
 9.983735085E-01 -2.305244707E-04 1.849348545E-01
 9.983513355E-01 -2.336688631E-04 1.848659813E-01
 9.983289838E-01 -2.368321293E-04 1.848023981E-01
 9.983065128E-01 -2.400144149E-04 1.847388297E-01
 9.982838631E-01 -2.432157926E-04 1.846752465E-01
 9.982611537E-01 -2.464364225E-04 1.846063733E-01
 9.982382655E-01 -2.496763773E-04 1.845427901E-01
 9.982151985E-01 -2.529357735E-04 1.844739169E-01
 9.981920719E-01 -2.562147565E-04 1.844103336E-01
 9.981687665E-01 -2.595134429E-04 1.843414605E-01
 9.981452823E-01 -2.628319198E-04 1.842778772E-01
 9.981217384E-01 -2.661703038E-04 1.842090040E-01
 9.980980158E-01 -2.695287403E-04 1.841401309E-01
 9.980741143E-01 -2.729073458E-04 1.840765476E-01
 9.980500937E-01 -2.763062075E-04 1.840076745E-01
 9.980259538E-01 -2.797254710E-04 1.839388013E-01
 9.980016351E-01 -2.831652528E-04 1.838699281E-01
 9.979771972E-01 -2.866256982E-04 1.838010401E-01
 9.979525805E-01 -2.901068656E-04 1.837321669E-01
 9.979278445E-01 -2.936089586E-04 1.836632937E-01
 9.979029298E-01 -2.971320355E-04 1.835944206E-01
 9.978778958E-01 -3.006762417E-04 1.835255474E-01
 9.978526831E-01 -3.042417229E-04 1.834513694E-01
 9.978273511E-01 -3.078285954E-04 1.833824813E-01
 9.978018403E-01 -3.114369465E-04 1.833136082E-01
 9.977762103E-01 -3.150669509E-04 1.832394302E-01
 9.977503419E-01 -3.187187249E-04 1.831705570E-01
 9.977244139E-01 -3.223923850E-04 1.830963790E-01
 9.976983070E-01 -3.260880767E-04 1.830275059E-01
 9.976720214E-01 -3.298059164E-04 1.829533279E-01
 9.976455569E-01 -3.335460497E-04 1.828844547E-01
 9.976189733E-01 -3.373085929E-04 1.828102767E-01
 9.975922108E-01 -3.410936915E-04 1.827361137E-01
 9.975652695E-01 -3.449014621E-04 1.826672256E-01
 9.975382090E-01 -3.487320500E-04 1.825930625E-01
 9.975109696E-01 -3.525856009E-04 1.825188845E-01
 9.974835515E-01 -3.564622311E-04 1.824447066E-01
 9.974559546E-01 -3.603620862E-04 1.823705286E-01
 9.974282384E-01 -3.642852826E-04 1.822963655E-01
 9.974003434E-01 -3.682319948E-04 1.822221875E-01
 9.973722696E-01 -3.722023102E-04 1.821480095E-01
 9.973440170E-01 -3.761964326E-04 1.820738316E-01
 9.973155856E-01 -3.802144784E-04 1.819996536E-01
 9.972869754E-01 -3.842565638E-04 1.819201857E-01
 9.972582459E-01 -3.883228346E-04 1.818460077E-01
 9.972292781E-01 -3.924134653E-04 1.817718446E-01
 9.972001910E-01 -3.965285723E-04 1.816923618E-01
 9.971709251E-01 -4.006683012E-04 1.816181839E-01
 9.971414804E-01 -4.048328265E-04 1.815387160E-01
 9.971117973E-01 -4.090222355E-04 1.814645380E-01
 9.970819950E-01 -4.132367321E-04 1.813850701E-01
 9.970520139E-01 -4.174764326E-04 1.813108921E-01
 9.970218539E-01 -4.217415117E-04 1.812314242E-01
 9.969914556E-01 -4.260320857E-04 1.811519563E-01
 9.969609380E-01 -4.303483292E-04 1.810724735E-01
 9.969302416E-01 -4.346903879E-04 1.809983104E-01
 9.968993068E-01 -4.390584072E-04 1.809188277E-01
 9.968681931E-01 -4.434525326E-04 1.808393598E-01
 9.968369603E-01 -4.478729388E-04 1.807598770E-01
 9.968054891E-01 -4.523197422E-04 1.806804091E-01
 9.967738390E-01 -4.567931464E-04 1.806009412E-01
 9.967419505E-01 -4.612932971E-04 1.805214584E-01
 9.967099428E-01 -4.658203397E-04 1.804419905E-01
 9.966776967E-01 -4.703744198E-04 1.803572178E-01
 9.966452718E-01 -4.749556829E-04 1.802777499E-01
 9.966126680E-01 -4.795643617E-04 1.801982820E-01
 9.965798259E-01 -4.842005437E-04 1.801135093E-01
 9.965468049E-01 -4.888644326E-04 1.800340265E-01
 9.965136051E-01 -4.935561446E-04 1.799545586E-01
 9.964801669E-01 -4.982759128E-04 1.798697859E-01
 9.964465499E-01 -5.030238535E-04 1.797903180E-01
 9.964127541E-01 -5.078000831E-04 1.797055453E-01
 9.963787198E-01 -5.126048927E-04 1.796207726E-01
 9.963445067E-01 -5.174383405E-04 1.795413047E-01
 9.963100553E-01 -5.223006592E-04 1.794565320E-01
 9.962754250E-01 -5.271920236E-04 1.793717593E-01
 9.962406158E-01 -5.321124918E-04 1.792869866E-01
 9.962055683E-01 -5.370623549E-04 1.792022139E-01
 9.961702824E-01 -5.420417874E-04 1.791227460E-01
 9.961348176E-01 -5.470509059E-04 1.790379733E-01
 9.960991144E-01 -5.520898267E-04 1.789532006E-01
 9.960632324E-01 -5.571588990E-04 1.788631380E-01
 9.960271120E-01 -5.622581230E-04 1.787783653E-01
 9.959907532E-01 -5.673877895E-04 1.786935925E-01
 9.959542155E-01 -5.725480150E-04 1.786088198E-01
 9.959174395E-01 -5.777389742E-04 1.785240471E-01
 9.958804250E-01 -5.829608999E-04 1.784339845E-01
 9.958432317E-01 -5.882139667E-04 1.783492118E-01
 9.958057404E-01 -5.934982910E-04 1.782644391E-01
 9.957680702E-01 -5.988141056E-04 1.781743616E-01
 9.957302213E-01 -6.041616434E-04 1.780895889E-01
 9.956920743E-01 -6.095409626E-04 1.779995263E-01
 9.956537485E-01 -6.149523542E-04 1.779094636E-01
 9.956151247E-01 -6.203959347E-04 1.778246909E-01
 9.955763221E-01 -6.258719950E-04 1.777346134E-01
 9.955372810E-01 -6.313805934E-04 1.776445508E-01
 9.954980016E-01 -6.369219627E-04 1.775544733E-01
 9.954584837E-01 -6.424963940E-04 1.774644107E-01
 9.954187274E-01 -6.481039454E-04 1.773796380E-01
 9.953787327E-01 -6.537448498E-04 1.772895753E-01
 9.953385592E-01 -6.594193401E-04 1.771994978E-01
 9.952980876E-01 -6.651275908E-04 1.771041304E-01
 9.952573180E-01 -6.708697765E-04 1.770140678E-01
 9.952163696E-01 -6.766461302E-04 1.769239902E-01
 9.951751828E-01 -6.824568263E-04 1.768339276E-01
 9.951337576E-01 -6.883020396E-04 1.767438501E-01
 9.950920343E-01 -6.941820029E-04 1.766484827E-01
 9.950500727E-01 -7.000969490E-04 1.765584201E-01
 9.950078726E-01 -7.060470525E-04 1.764683574E-01
 9.949654341E-01 -7.120324881E-04 1.763729751E-01
 9.949226975E-01 -7.180534885E-04 1.762829125E-01
 9.948797822E-01 -7.241102867E-04 1.761875451E-01
 9.948365092E-01 -7.302029990E-04 1.760921776E-01
 9.947930574E-01 -7.363319746E-04 1.760021150E-01
 9.947493076E-01 -7.424972719E-04 1.759067476E-01
 9.947053194E-01 -7.486992399E-04 1.758113801E-01
 9.946610332E-01 -7.549379370E-04 1.757160127E-01
 9.946165085E-01 -7.612137706E-04 1.756206453E-01
 9.945716858E-01 -7.675267407E-04 1.755252779E-01
 9.945266247E-01 -7.738772547E-04 1.754299104E-01
 9.944813251E-01 -7.802654291E-04 1.753345430E-01
 9.944356680E-01 -7.866914966E-04 1.752391756E-01
 9.943898320E-01 -7.931556320E-04 1.751438081E-01
 9.943436384E-01 -7.996581262E-04 1.750484407E-01
 9.942972064E-01 -8.061992121E-04 1.749530733E-01
 9.942504764E-01 -8.127790643E-04 1.748524010E-01
 9.942035079E-01 -8.193978574E-04 1.747570336E-01
 9.941562414E-01 -8.260559407E-04 1.746616662E-01
 9.941086769E-01 -8.327534888E-04 1.745609939E-01
 9.940608144E-01 -8.394906763E-04 1.744656414E-01
 9.940127134E-01 -8.462677943E-04 1.743649691E-01
 9.939643145E-01 -8.530850755E-04 1.742642969E-01
 9.939156175E-01 -8.599426947E-04 1.741689295E-01
 9.938666224E-01 -8.668408846E-04 1.740682721E-01
 9.938173294E-01 -8.737799944E-04 1.739675999E-01
 9.937677383E-01 -8.807601407E-04 1.738669425E-01
 9.937178493E-01 -8.877815562E-04 1.737662703E-01
 9.936676621E-01 -8.948445902E-04 1.736656129E-01
 9.936171770E-01 -9.019493591E-04 1.735649407E-01
 9.935663939E-01 -9.090962121E-04 1.734642833E-01
 9.935153127E-01 -9.162852657E-04 1.733636111E-01
 9.934639335E-01 -9.235168691E-04 1.732629389E-01
 9.934122562E-01 -9.307911969E-04 1.731622815E-01
 9.933602214E-01 -9.381085983E-04 1.730563194E-01
 9.933078885E-01 -9.454691899E-04 1.729556471E-01
 9.932552576E-01 -9.528732626E-04 1.728549898E-01
 9.932023287E-01 -9.603211074E-04 1.727490127E-01
 9.931491017E-01 -9.678129572E-04 1.726483554E-01
 9.930955172E-01 -9.753490449E-04 1.725423932E-01
 9.930416346E-01 -9.829296032E-04 1.724364311E-01
 9.929873943E-01 -9.905549232E-04 1.723357588E-01
 9.929328561E-01 -9.982252959E-04 1.722297966E-01
 9.928779602E-01 -1.005940954E-03 1.721238345E-01
 9.928227663E-01 -1.013702131E-03 1.720178723E-01
 9.927672744E-01 -1.021509059E-03 1.719119102E-01
 9.927113652E-01 -1.029362087E-03 1.718059480E-01
 9.926552176E-01 -1.037261449E-03 1.716999710E-01
 9.925986528E-01 -1.045207260E-03 1.715940088E-01
 9.925417900E-01 -1.053200103E-03 1.714827567E-01
 9.924270511E-01 -1.069327118E-03 1.712761223E-01
 9.923691750E-01 -1.077462104E-03 1.711701602E-01
 9.923109412E-01 -1.085644937E-03 1.710588932E-01
 9.922523499E-01 -1.093875850E-03 1.709529310E-01
 9.921934605E-01 -1.102155424E-03 1.708469689E-01
 9.921341538E-01 -1.110483659E-03 1.707357019E-01
 9.920745492E-01 -1.118860906E-03 1.706297398E-01
 9.920145273E-01 -1.127287396E-03 1.705237776E-01
 9.919542074E-01 -1.135763596E-03 1.704125106E-01
 9.918934703E-01 -1.144289621E-03 1.703012586E-01
 9.918324351E-01 -1.152865821E-03 1.701952964E-01
 9.917709827E-01 -1.161492430E-03 1.700840294E-01
 9.917091727E-01 -1.170169679E-03 1.699727625E-01
 9.916470051E-01 -1.178898034E-03 1.698615104E-01
 9.915844798E-01 -1.187677728E-03 1.697555482E-01
 9.915215969E-01 -1.196508878E-03 1.696442813E-01
 9.914582968E-01 -1.205392065E-03 1.695330143E-01
 9.913946390E-01 -1.214327291E-03 1.694217622E-01
 9.913305640E-01 -1.223315019E-03 1.693051904E-01
 9.912661910E-01 -1.232355600E-03 1.691939384E-01
 9.912013412E-01 -1.241449150E-03 1.690826714E-01
 9.911361933E-01 -1.250596135E-03 1.689714044E-01
 9.910705686E-01 -1.259796787E-03 1.688548476E-01
 9.910046458E-01 -1.269051339E-03 1.687435806E-01
 9.909382463E-01 -1.278360258E-03 1.686323285E-01
 9.908714890E-01 -1.287723659E-03 1.685157716E-01
 9.908043742E-01 -1.297142007E-03 1.683991998E-01
 9.907367826E-01 -1.306615537E-03 1.682879478E-01
 9.906688333E-01 -1.316144597E-03 1.681713760E-01
 9.906005263E-01 -1.325729536E-03 1.680548191E-01
 9.905317426E-01 -1.335370587E-03 1.679435670E-01
 9.904625416E-01 -1.345067983E-03 1.678269953E-01
 9.903929830E-01 -1.354822307E-03 1.677104384E-01
 9.903230071E-01 -1.364633674E-03 1.675938815E-01
 9.902525544E-01 -1.374502433E-03 1.674773246E-01
 9.901817441E-01 -1.384428935E-03 1.673607528E-01
 9.901105165E-01 -1.394413412E-03 1.672441959E-01
 9.900388122E-01 -1.404456445E-03 1.671276391E-01
 9.899667501E-01 -1.414558035E-03 1.670057774E-01
 9.898942113E-01 -1.424718765E-03 1.668892205E-01
 9.898212552E-01 -1.434938866E-03 1.667726636E-01
 9.897478819E-01 -1.445218688E-03 1.666508019E-01
 9.896740317E-01 -1.455558464E-03 1.665342450E-01
 9.895997643E-01 -1.465958660E-03 1.664123833E-01
 9.895250797E-01 -1.476419624E-03 1.662958264E-01
 9.894499183E-01 -1.486941590E-03 1.661739647E-01
 9.893743396E-01 -1.497524907E-03 1.660574079E-01
 9.892982841E-01 -1.508170040E-03 1.659355462E-01
 9.892218113E-01 -1.518877223E-03 1.658136845E-01
 9.891448617E-01 -1.529646805E-03 1.656918228E-01
 9.890674353E-01 -1.540479250E-03 1.655699760E-01
 9.889895916E-01 -1.551374793E-03 1.654481143E-01
 9.889112711E-01 -1.562333782E-03 1.653262526E-01
 9.888324738E-01 -1.573356567E-03 1.652043909E-01
 9.887532592E-01 -1.584443613E-03 1.650825441E-01
 9.886735082E-01 -1.595595153E-03 1.649606824E-01
 9.885933399E-01 -1.606811653E-03 1.648388207E-01
 9.885126352E-01 -1.618093345E-03 1.647116691E-01
 9.884315133E-01 -1.629440696E-03 1.645898074E-01
 9.883499146E-01 -1.640854054E-03 1.644679457E-01
 9.882677794E-01 -1.652333769E-03 1.643407941E-01
 9.881851673E-01 -1.663880190E-03 1.642189324E-01
 9.881020784E-01 -1.675493666E-03 1.640917808E-01
 9.880185127E-01 -1.687174663E-03 1.639699191E-01
 9.879344702E-01 -1.698923414E-03 1.638427675E-01
 9.878498912E-01 -1.710740500E-03 1.637156010E-01
 9.877648354E-01 -1.722626155E-03 1.635884494E-01
 9.876793027E-01 -1.734580728E-03 1.634665877E-01
 9.875931740E-01 -1.746604568E-03 1.633394361E-01
 9.875066280E-01 -1.758698258E-03 1.632122844E-01
 9.874195457E-01 -1.770862029E-03 1.630851179E-01
 9.873319268E-01 -1.783096348E-03 1.629579663E-01
 9.872438312E-01 -1.795401447E-03 1.628255099E-01
 9.871551394E-01 -1.807777910E-03 1.626983583E-01
 9.870659709E-01 -1.820226084E-03 1.625711918E-01
 9.869763255E-01 -1.832746202E-03 1.624440402E-01
 9.868860841E-01 -1.845338847E-03 1.623115838E-01
 9.867953062E-01 -1.858004369E-03 1.621844321E-01
 9.867040515E-01 -1.870743115E-03 1.620572656E-01
 9.866122007E-01 -1.883555553E-03 1.619248092E-01
 9.865198135E-01 -1.896442031E-03 1.617976576E-01
 9.864269495E-01 -1.909403014E-03 1.616652012E-01
 9.863334894E-01 -1.922438852E-03 1.615327448E-01
 9.862394333E-01 -1.935549895E-03 1.614002883E-01
 9.861449003E-01 -1.948736724E-03 1.612731367E-01
 9.860497713E-01 -1.961999573E-03 1.611406803E-01
 9.859541059E-01 -1.975339139E-03 1.610082239E-01
 9.858578444E-01 -1.988755306E-03 1.608757824E-01
 9.857610464E-01 -2.002249239E-03 1.607433259E-01
 9.856636524E-01 -2.015820704E-03 1.606108695E-01
 9.855656624E-01 -2.029470401E-03 1.604784131E-01
 9.854671359E-01 -2.043198794E-03 1.603459567E-01
 9.853680134E-01 -2.057006117E-03 1.602135003E-01
 9.852683544E-01 -2.070893068E-03 1.600757539E-01
 9.851680398E-01 -2.084859880E-03 1.599432975E-01
 9.850671887E-01 -2.098907018E-03 1.598108411E-01
 9.849657416E-01 -2.113034949E-03 1.596730798E-01
 9.848636389E-01 -2.127244137E-03 1.595406383E-01
 9.847609997E-01 -2.141534816E-03 1.594028771E-01
 9.846577644E-01 -2.155907918E-03 1.592704207E-01
 9.845538735E-01 -2.170363208E-03 1.591326743E-01
 9.844493866E-01 -2.184901852E-03 1.589949131E-01
 9.843443036E-01 -2.199523617E-03 1.588571668E-01
 9.842386246E-01 -2.214229433E-03 1.587247103E-01
 9.841322899E-01 -2.229019534E-03 1.585869491E-01
 9.840252995E-01 -2.243894618E-03 1.584492028E-01
 9.839177132E-01 -2.258854685E-03 1.583114564E-01
 9.838095307E-01 -2.273900667E-03 1.581736952E-01
 9.837006927E-01 -2.289032564E-03 1.580359489E-01
 9.835911989E-01 -2.304251306E-03 1.578981876E-01
 9.834810495E-01 -2.319557127E-03 1.577604413E-01
 9.833703041E-01 -2.334950259E-03 1.576173902E-01
 9.832589030E-01 -2.350431634E-03 1.574796289E-01
 9.831467867E-01 -2.366001485E-03 1.573418826E-01
 9.830340743E-01 -2.381660510E-03 1.571988314E-01
 9.829207063E-01 -2.397408709E-03 1.570610702E-01
 9.828066230E-01 -2.413246781E-03 1.569233239E-01
 9.826919436E-01 -2.429175423E-03 1.567802727E-01
 9.825765491E-01 -2.445194870E-03 1.566372216E-01
 9.824604988E-01 -2.461305819E-03 1.564994752E-01
 9.823437333E-01 -2.477508504E-03 1.563564241E-01
 9.822263122E-01 -2.493803622E-03 1.562133729E-01
 9.821081758E-01 -2.510191407E-03 1.560756117E-01
 9.819893837E-01 -2.526672557E-03 1.559325606E-01
 9.818699360E-01 -2.543247538E-03 1.557895094E-01
 9.817497134E-01 -2.559916815E-03 1.556464583E-01
 9.816288352E-01 -2.576681087E-03 1.555034071E-01
 9.815072417E-01 -2.593540587E-03 1.553603560E-01
 9.813849330E-01 -2.610495780E-03 1.552173048E-01
 9.812619090E-01 -2.627547365E-03 1.550742537E-01
 9.811381698E-01 -2.644695807E-03 1.549312025E-01
 9.810137153E-01 -2.661941340E-03 1.547881514E-01
 9.808884859E-01 -2.679285128E-03 1.546398103E-01
 9.807626009E-01 -2.696726937E-03 1.544967592E-01
 9.806359410E-01 -2.714267699E-03 1.543537080E-01
 9.805085659E-01 -2.731908113E-03 1.542053521E-01
 9.803804159E-01 -2.749648178E-03 1.540623009E-01
 9.802515507E-01 -2.767488593E-03 1.539139450E-01
 9.801219106E-01 -2.785430290E-03 1.537708938E-01
 9.799915552E-01 -2.803473268E-03 1.536225528E-01
 9.798604250E-01 -2.821618225E-03 1.534741968E-01
 9.797285199E-01 -2.839865861E-03 1.533311456E-01
 9.795958400E-01 -2.858216641E-03 1.531828046E-01
 9.794623852E-01 -2.876671031E-03 1.530344486E-01
 9.793281555E-01 -2.895229496E-03 1.528861076E-01
 9.791932106E-01 -2.913892502E-03 1.527430564E-01
 9.790574312E-01 -2.932660980E-03 1.525947005E-01
 9.789208174E-01 -2.951535163E-03 1.524463594E-01
 9.787834883E-01 -2.970515750E-03 1.522980034E-01
 9.786453247E-01 -2.989603207E-03 1.521496624E-01
 9.785063863E-01 -3.008797998E-03 1.520013064E-01
 9.783666134E-01 -3.028101055E-03 1.518476605E-01
 9.782260060E-01 -3.047512379E-03 1.516993046E-01
 9.780846238E-01 -3.067032900E-03 1.515509635E-01
 9.779424071E-01 -3.086663084E-03 1.514026076E-01
 9.777994156E-01 -3.106403630E-03 1.512489617E-01
 9.776555300E-01 -3.126254771E-03 1.511006057E-01
 9.775108695E-01 -3.146217437E-03 1.509522647E-01
 9.773653150E-01 -3.166291863E-03 1.507986188E-01
 9.772189260E-01 -3.186478978E-03 1.506502628E-01
 9.770717621E-01 -3.206779016E-03 1.504966170E-01
 9.769236445E-01 -3.227192909E-03 1.503482759E-01
 9.767747521E-01 -3.247720888E-03 1.501946151E-01
 9.766249657E-01 -3.268363886E-03 1.500409693E-01
 9.764742851E-01 -3.289122134E-03 1.498926282E-01
 9.763227701E-01 -3.309996333E-03 1.497389823E-01
 9.761703610E-01 -3.330987180E-03 1.495853364E-01
 9.760171175E-01 -3.352095140E-03 1.494316757E-01
 9.758629203E-01 -3.373320913E-03 1.492833346E-01
 9.757078886E-01 -3.394664964E-03 1.491296887E-01
 9.755519629E-01 -3.416128224E-03 1.489760429E-01
 9.753950834E-01 -3.437710693E-03 1.488223970E-01
 9.752373695E-01 -3.459413536E-03 1.486687362E-01
 9.750787020E-01 -3.481237218E-03 1.485150903E-01
 9.749191403E-01 -3.503181972E-03 1.483614445E-01
 9.747586250E-01 -3.525248962E-03 1.482077986E-01
 9.745972157E-01 -3.547438420E-03 1.480488479E-01
 9.744349122E-01 -3.569751279E-03 1.478952020E-01
 9.742716551E-01 -3.592187772E-03 1.477415562E-01
 9.741074443E-01 -3.614748595E-03 1.475879103E-01
 9.739422798E-01 -3.637434682E-03 1.474289596E-01
 9.737761617E-01 -3.660246497E-03 1.472753137E-01
 9.736090899E-01 -3.683184506E-03 1.471216679E-01
 9.734410644E-01 -3.706249408E-03 1.469627321E-01
 9.732720852E-01 -3.729441902E-03 1.468090713E-01
 9.731021523E-01 -3.752762685E-03 1.466501355E-01
 9.729312062E-01 -3.776212223E-03 1.464964896E-01
 9.727593064E-01 -3.799791215E-03 1.463375390E-01
 9.725864530E-01 -3.823500127E-03 1.461838931E-01
 9.724125266E-01 -3.847340122E-03 1.460249424E-01
 9.722376466E-01 -3.871311201E-03 1.458660066E-01
 9.720618129E-01 -3.895414528E-03 1.457123458E-01
 9.718849063E-01 -3.919650335E-03 1.455534101E-01
 9.717069864E-01 -3.944019787E-03 1.453944594E-01
 9.715281129E-01 -3.968522884E-03 1.452408135E-01
 9.713481665E-01 -3.993161023E-03 1.450818628E-01
 9.711672068E-01 -4.017934203E-03 1.449229270E-01
 9.709851742E-01 -4.042843357E-03 1.447639763E-01
 9.708021879E-01 -4.067888949E-03 1.446050256E-01
 9.706180692E-01 -4.093071911E-03 1.444460899E-01
 9.704329371E-01 -4.118393175E-03 1.442871392E-01
 9.702467322E-01 -4.143852741E-03 1.441281885E-01
 9.700595140E-01 -4.169451538E-03 1.439692527E-01
 9.698711634E-01 -4.195190500E-03 1.438103020E-01
 9.696817994E-01 -4.221069627E-03 1.436513513E-01
 9.694913030E-01 -4.247090314E-03 1.434924155E-01
 9.692997932E-01 -4.273253027E-03 1.433334649E-01
 9.691071510E-01 -4.299558699E-03 1.431745142E-01
 9.689133763E-01 -4.326007329E-03 1.430155784E-01
 9.687185884E-01 -4.352600314E-03 1.428566277E-01
 9.685226083E-01 -4.379337654E-03 1.426923871E-01
 9.683255553E-01 -4.406220280E-03 1.425334364E-01
 9.681273699E-01 -4.433249589E-03 1.423744857E-01
 9.679280519E-01 -4.460425116E-03 1.422155499E-01
 9.677276611E-01 -4.487748723E-03 1.420513093E-01
 9.675260782E-01 -4.515219945E-03 1.418923587E-01
 9.673233628E-01 -4.542840645E-03 1.417334080E-01
 9.671195149E-01 -4.570610356E-03 1.415691674E-01
 9.669144750E-01 -4.598530475E-03 1.414102167E-01
 9.667083025E-01 -4.626601934E-03 1.412459761E-01
 9.665009379E-01 -4.654824734E-03 1.410870254E-01
 9.662924409E-01 -4.683200270E-03 1.409280896E-01
 9.660827518E-01 -4.711728543E-03 1.407638490E-01
 9.658718705E-01 -4.740410950E-03 1.406048983E-01
 9.656597972E-01 -4.769247957E-03 1.404406577E-01
 9.654465318E-01 -4.798240494E-03 1.402817070E-01
 9.652320147E-01 -4.827388562E-03 1.401174664E-01
 9.650163651E-01 -4.856693558E-03 1.399532259E-01
 9.647994637E-01 -4.886155948E-03 1.397942752E-01
 9.645813107E-01 -4.915776663E-03 1.396300346E-01
 9.643619657E-01 -4.945556168E-03 1.394710839E-01
 9.641414285E-01 -4.975495394E-03 1.393068433E-01
 9.639195800E-01 -5.005594809E-03 1.391426027E-01
 9.636964798E-01 -5.035855342E-03 1.389836520E-01
 9.634721875E-01 -5.066277925E-03 1.388194114E-01
 9.632465839E-01 -5.096863024E-03 1.386551559E-01
 9.630197287E-01 -5.127611570E-03 1.384962201E-01
 9.627915621E-01 -5.158524029E-03 1.383319795E-01
 9.625622034E-01 -5.189601332E-03 1.381677240E-01
 9.623314738E-01 -5.220843945E-03 1.380034834E-01
 9.620994925E-01 -5.252253264E-03 1.378445327E-01
 9.618662000E-01 -5.283829290E-03 1.376802921E-01
 9.616315961E-01 -5.315573420E-03 1.375160515E-01
 9.613956809E-01 -5.347486120E-03 1.373518109E-01
 9.611584544E-01 -5.379567854E-03 1.371928602E-01
 9.609198570E-01 -5.411820021E-03 1.370286196E-01
 9.606800079E-01 -5.444243085E-03 1.368643790E-01
 9.604387879E-01 -5.476837512E-03 1.367001384E-01
 9.601961970E-01 -5.509604234E-03 1.365358829E-01
 9.599522352E-01 -5.542544182E-03 1.363769472E-01
 9.597069621E-01 -5.575657822E-03 1.362126917E-01
 9.594602585E-01 -5.608946551E-03 1.360484511E-01
 9.592122436E-01 -5.642410368E-03 1.358842105E-01
 9.589627981E-01 -5.676050670E-03 1.357199699E-01
 9.587120414E-01 -5.709867459E-03 1.355557144E-01
 9.584597945E-01 -5.743862595E-03 1.353914738E-01
 9.582062364E-01 -5.778036080E-03 1.352325380E-01
 9.579511881E-01 -5.812388379E-03 1.350682825E-01
 9.576947689E-01 -5.846921355E-03 1.349040419E-01
 9.574369192E-01 -5.881635007E-03 1.347398013E-01
 9.571776390E-01 -5.916530266E-03 1.345755607E-01
 9.569169283E-01 -5.951608066E-03 1.344113052E-01
 9.566547275E-01 -5.986868870E-03 1.342470646E-01
 9.563910961E-01 -6.022313610E-03 1.340881288E-01
 9.561260343E-01 -6.057943683E-03 1.339238733E-01
 9.558594823E-01 -6.093758624E-03 1.337596327E-01
 9.555914402E-01 -6.129760295E-03 1.335953921E-01
 9.553219676E-01 -6.165949162E-03 1.334311515E-01
 9.550509453E-01 -6.202326156E-03 1.332668960E-01
 9.547784925E-01 -6.238891743E-03 1.331079602E-01
 9.545044899E-01 -6.275646389E-03 1.329437196E-01
 9.542289972E-01 -6.312591955E-03 1.327794641E-01
 9.539519548E-01 -6.349728443E-03 1.326152235E-01
 9.536734223E-01 -6.387057249E-03 1.324509829E-01
 9.533933401E-01 -6.424578372E-03 1.322867423E-01
 9.531117082E-01 -6.462293211E-03 1.321277916E-01
 9.528285861E-01 -6.500202231E-03 1.319635510E-01
 9.525438547E-01 -6.538306363E-03 1.317993104E-01
 9.522575736E-01 -6.576607004E-03 1.316350549E-01
 9.519696832E-01 -6.615103688E-03 1.314761192E-01
 9.516803026E-01 -6.653798278E-03 1.313118637E-01
 9.513892531E-01 -6.692691240E-03 1.311476231E-01
 9.510966539E-01 -6.731783506E-03 1.309833825E-01
 9.508024454E-01 -6.771076005E-03 1.308244318E-01
 9.505066276E-01 -6.810568739E-03 1.306601912E-01
 9.502091408E-01 -6.850263570E-03 1.304959506E-01
 9.499101043E-01 -6.890160497E-03 1.303369999E-01
 9.496093988E-01 -6.930260919E-03 1.301727593E-01
 9.493070841E-01 -6.970565300E-03 1.300085187E-01
 9.490031004E-01 -7.011074573E-03 1.298495680E-01
 9.486974478E-01 -7.051789667E-03 1.296853274E-01
 9.483901262E-01 -7.092711050E-03 1.295263767E-01
 9.480811357E-01 -7.133840118E-03 1.293621361E-01
 9.477704763E-01 -7.175177336E-03 1.292031854E-01
 9.474581480E-01 -7.216723170E-03 1.290389448E-01
 9.471440911E-01 -7.258479018E-03 1.288799942E-01
 9.468283653E-01 -7.300445344E-03 1.287157536E-01
 9.465109110E-01 -7.342623547E-03 1.285568178E-01
 9.461917281E-01 -7.385013625E-03 1.283925623E-01
 9.458708167E-01 -7.427616976E-03 1.282336265E-01
 9.455481768E-01 -7.470434066E-03 1.280693710E-01
 9.452237487E-01 -7.513465825E-03 1.279104352E-01
 9.448976517E-01 -7.556713186E-03 1.277514845E-01
 9.445697069E-01 -7.600177079E-03 1.275872439E-01
 9.442400336E-01 -7.643857971E-03 1.274282932E-01
 9.439086318E-01 -7.687757257E-03 1.272693574E-01
 9.435753822E-01 -7.731874939E-03 1.271104068E-01
 9.432403445E-01 -7.776212879E-03 1.269461662E-01
 9.429035187E-01 -7.820771076E-03 1.267872155E-01
 9.425648451E-01 -7.865549996E-03 1.266282648E-01
 9.422244430E-01 -7.910551503E-03 1.264693290E-01
 9.418821335E-01 -7.955776528E-03 1.263103783E-01
 9.415379763E-01 -8.001225069E-03 1.261514276E-01
 9.411920309E-01 -8.046897128E-03 1.259924918E-01
 9.408442378E-01 -8.092796430E-03 1.258335412E-01
 9.404945374E-01 -8.138921112E-03 1.256745905E-01
 9.401429892E-01 -8.185272105E-03 1.255156547E-01
 9.397895336E-01 -8.231852204E-03 1.253567040E-01
 9.394342303E-01 -8.278660476E-03 1.251977533E-01
 9.390770197E-01 -8.325698785E-03 1.250441074E-01
 9.387179017E-01 -8.372967131E-03 1.248851642E-01
 9.383568764E-01 -8.420466445E-03 1.247262210E-01
 9.379939437E-01 -8.468198590E-03 1.245725751E-01
 9.376290441E-01 -8.516162634E-03 1.244136244E-01
 9.372622371E-01 -8.564360440E-03 1.242546812E-01
 9.368934631E-01 -8.612793870E-03 1.241010353E-01
 9.365227818E-01 -8.661461063E-03 1.239420846E-01
 9.361500740E-01 -8.710365742E-03 1.237884387E-01
 9.357754588E-01 -8.759506047E-03 1.236294955E-01
 9.353988171E-01 -8.808885701E-03 1.234758496E-01
 9.350201488E-01 -8.858502842E-03 1.233221963E-01
 9.346395135E-01 -8.908359334E-03 1.231632531E-01
 9.342569113E-01 -8.958456106E-03 1.230096072E-01
 9.338722229E-01 -9.008794092E-03 1.228559613E-01
 9.334855676E-01 -9.059374221E-03 1.227023080E-01
 9.330968261E-01 -9.110196494E-03 1.225486621E-01
 9.327060580E-01 -9.161262773E-03 1.223950163E-01
 9.323132634E-01 -9.212573059E-03 1.222413704E-01
 9.319183826E-01 -9.264128283E-03 1.220877245E-01