VARIABLES = "N" "h=sqrt(1/N)" "CL" "CD" "CMy" "CDp" "CDv"
# Note FUN3D uses 2nd order turb advection
ZONE T="FUN3D, Family II, NOPV AW SA model, 10 deg, on triangles"
      3729  0.1638E-01  0.9708613245E+00   0.3935913568E-01 0.6749660759E-02   0.3447253889E-01   0.4886596793E-02
     14625  0.8269E-02  0.1072587539E+01   0.1671183628E-01 0.5970985575E-02   0.1073949827E-01   0.5972338013E-02
     57921  0.4155E-02  0.1090013012E+01   0.1291926413E-01 0.6121944974E-02   0.6711014271E-02   0.6208249857E-02
    230529  0.2083E-02  0.1091235500E+01   0.1236872569E-01 0.6550013420E-02   0.6149248938E-02   0.6219476750E-02
    919809  0.1043E-02  0.1090927049E+01   0.1228635330E-01 0.6753816558E-02   0.6074822026E-02   0.6211531273E-02
   3674625  0.5217E-03  0.1090864945E+01   0.1227392882E-01 0.6795066465E-02   0.6066288759E-02   0.6207640066E-02
  14689281  0.2609E-03  0.1090978744E+01   0.1227251945E-01 0.6775405522E-02   0.6066376320E-02   0.6206143132E-02 
