# Results on finest four family II grids (7169x2049, 3585x1025, 1793x513, 897x257)
VARIABLES = "x" "z" "cp"
ZONE T="FUN3D, 0 lev dn, no PV"
   1.00000000000000       0.000000000000000E+000  0.188685596000000     
  0.999987602200000      -1.755868311000000E-006  0.189055010700000     
  0.999975144900000      -3.522341558000000E-006  0.188941329700000     
  0.999962627900000      -5.299483291000000E-006  0.188997864700000     
  0.999950051300000      -7.087357062000000E-006  0.189066126900000     
  0.999937355500000      -8.886026990000000E-006  0.189113274200000     
  0.999924600100000      -1.069555765000000E-005  0.189168512800000     
  0.999911785100000      -1.251601225000000E-005  0.189203217600000     
  0.999898850900000      -1.434745809000000E-005  0.189235255100000     
  0.999885857100000      -1.618995884000000E-005  0.189255595200000     
  0.999872803700000      -1.804358180000000E-005  0.189271256300000     
  0.999859690700000      -1.990839337000000E-005  0.189280897400000     
  0.999846458400000      -2.178445720000000E-005  0.189286291600000     
  0.999833107000000      -2.367184425000000E-005  0.189287886000000     
  0.999819755600000      -2.557061998000000E-005  0.189285814800000     
  0.999806284900000      -2.748086081000000E-005  0.189280778200000     
  0.999792754700000      -2.940263221000000E-005  0.189272582500000     
  0.999779105200000      -3.133600330000000E-005  0.189261853700000     
  0.999765396100000      -3.328104867000000E-005  0.189248472500000     
  0.999751567800000      -3.523783016000000E-005  0.189232856000000     
  0.999737739600000      -3.720642053000000E-005  0.189214989500000     
  0.999723732500000      -3.918689254000000E-005  0.189195156100000     
  0.999709725400000      -4.117931530000000E-005  0.189173400400000     
  0.999695539500000      -4.318376159000000E-005  0.189149916200000     
  0.999681353600000      -4.520030052000000E-005  0.189124748100000     
  0.999667048500000      -4.722900485000000E-005  0.189098045200000     
  0.999652624100000      -4.926994734000000E-005  0.189069852200000     
  0.999638199800000      -5.132320075000000E-005  0.189040288300000     
  0.999623596700000      -5.338883784000000E-005  0.189009413100000     
  0.999608933900000      -5.546693501000000E-005  0.188977286200000     
  0.999594211600000      -5.755756501000000E-005  0.188943982100000     
  0.999579370000000      -5.966080425000000E-005  0.188909560400000     
  0.999564468900000      -6.177672913000000E-005  0.188874065900000     
  0.999549448500000      -6.390541967000000E-005  0.188837558000000     
  0.999534368500000      -6.604693771999999E-005  0.188800066700000     
  0.999519169300000      -6.820137787000000E-005  0.188761651500000     
  0.999503850900000      -7.036880561000000E-005  0.188722342300000     
  0.999488472900000      -7.254930096999999E-005  0.188682183600000     
  0.999473035300000      -7.474294398000000E-005  0.188641190500000     
  0.999457418900000      -7.694981468000000E-005  0.188599422600000     
  0.999441802500000      -7.916999311000000E-005  0.188556894700000     
  0.999426007300000      -8.140354475000000E-005  0.188513636600000     
  0.999410152400000      -8.365057147000000E-005  0.188469678200000     
  0.999394238000000      -8.591113874000000E-005  0.188425049200000     
  0.999378204300000      -8.818533388000001E-005  0.188379749700000     
  0.999362051500000      -9.047322965000000E-005  0.188333824300000     
  0.999345839000000      -9.277492063000000E-005  0.188287273000000     
  0.999329507400000      -9.509047959000000E-005  0.188240140700000     
  0.999313056500000      -9.741999384000000E-005  0.188192427200000     
  0.999296546000000      -9.976354340000001E-005  0.188144162300000     
  0.999279856700000      -1.021212156000000E-004  0.188095346100000     
  0.999263167400000      -1.044930978000000E-004  0.188046008300000     
  0.999246299300000      -1.068792626000000E-004  0.187996149100000     
  0.999229371500000      -1.092798047000000E-004  0.187945798000000     
  0.999212324600000      -1.116948115000000E-004  0.187894955300000     
  0.999195218100000      -1.141243702000000E-004  0.187843635700000     
  0.999177932700000      -1.165685535000000E-004  0.187791854100000     
  0.999160587800000      -1.190274706000000E-004  0.187739625600000     
  0.999143123600000      -1.215011871000000E-004  0.187686950000000     
  0.999125599900000      -1.239898120000000E-004  0.187633842200000     
  0.999107956900000      -1.264934108000000E-004  0.187580317300000     
  0.999090135100000      -1.290120999000000E-004  0.187526375100000     
  0.999072253700000      -1.315459376000000E-004  0.187472030500000     
  0.999054312700000      -1.340950548000000E-004  0.187417283700000     
  0.999036192900000      -1.366595097000000E-004  0.187362149400000     
  0.999017953900000      -1.392393897000000E-004  0.187306627600000     
  0.998999655200000      -1.418348256000000E-004  0.187250733400000     
  0.998981237400000      -1.444458758000000E-004  0.187194466600000     
  0.998962700400000      -1.470726274000000E-004  0.187137842200000     
  0.998944044100000      -1.497152116000000E-004  0.187080845200000     
  0.998925268700000      -1.523736864000000E-004  0.187023505600000     
  0.998906433600000      -1.550481684000000E-004  0.186965823200000     
  0.998887419700000      -1.577387447000000E-004  0.186907798100000     
  0.998868286600000      -1.604455174000000E-004  0.186849430200000     
  0.998849093900000      -1.631685736000000E-004  0.186790734500000     
  0.998829782000000      -1.659080008000000E-004  0.186731725900000     
  0.998810291300000      -1.686639298000000E-004  0.186672374600000     
  0.998790741000000      -1.714364189000000E-004  0.186612710400000     
  0.998771071400000      -1.742255990000000E-004  0.186552733200000     
  0.998751223100000      -1.770315575000000E-004  0.186492428200000     
  0.998731315100000      -1.798543963000000E-004  0.186431825200000     
  0.998711288000000      -1.826942025000000E-004  0.186370924100000     
  0.998691082000000      -1.855510927000000E-004  0.186309710100000     
  0.998670816400000      -1.884251687000000E-004  0.186248213100000     
  0.998650372000000      -1.913165179000000E-004  0.186186403000000     
  0.998629868000000      -1.942252711000000E-004  0.186124309900000     
  0.998609185200000      -1.971515012000000E-004  0.186061918700000     
  0.998588383200000      -2.000953245000000E-004  0.185999244500000     
  0.998567462000000      -2.030568430000000E-004  0.185936287000000     
  0.998546481100000      -2.060361585000000E-004  0.185873031600000     
  0.998525261900000      -2.090333874000000E-004  0.185809508000000     
  0.998503983000000      -2.120486461000000E-004  0.185745701200000     
  0.998482585000000      -2.150820073000000E-004  0.185681626200000     
  0.998461008100000      -2.181336022000000E-004  0.185617268100000     
  0.998439371600000      -2.212035470000000E-004  0.185552626800000     
  0.998417556300000      -2.242919290000000E-004  0.185487732300000     
  0.998395562200000      -2.273988648000000E-004  0.185422554600000     
  0.998373508500000      -2.305244707000000E-004  0.185357108700000     
  0.998351335500000      -2.336688631000000E-004  0.185291394600000     
  0.998328983800000      -2.368321293000000E-004  0.185225412200000     
  0.998306512800000      -2.400144149000000E-004  0.185159176600000     
  0.998283863100000      -2.432157926000000E-004  0.185092672700000     
  0.998261153700000      -2.464364225000000E-004  0.185025900600000     
  0.998238265500000      -2.496763773000000E-004  0.184958875200000     
  0.998215198500000      -2.529357735000000E-004  0.184891581500000     
  0.998192071900000      -2.562147565000000E-004  0.184824034600000     
  0.998168766500000      -2.595134429000000E-004  0.184756234300000     
  0.998145282300000      -2.628319198000000E-004  0.184688165800000     
  0.998121738400000      -2.661703038000000E-004  0.184619858900000     
  0.998098015800000      -2.695287403000000E-004  0.184551283700000     
  0.998074114300000      -2.729073458000000E-004  0.184482455300000     
  0.998050093700000      -2.763062075000000E-004  0.184413373500000     
  0.998025953800000      -2.797254710000000E-004  0.184344023500000     
  0.998001635100000      -2.831652528000000E-004  0.184274435000000     
  0.997977197200000      -2.866256982000000E-004  0.184204608200000     
  0.997952580500000      -2.901068656000000E-004  0.184134513100000     
  0.997927844500000      -2.936089586000000E-004  0.184064164800000     
  0.997902929800000      -2.971320355000000E-004  0.183993578000000     
  0.997877895800000      -3.006762417000000E-004  0.183922722900000     
  0.997852683100000      -3.042417229000000E-004  0.183851629500000     
  0.997827351100000      -3.078285954000000E-004  0.183780297600000     
  0.997801840300000      -3.114369465000000E-004  0.183708697600000     
  0.997776210300000      -3.150669509000000E-004  0.183636859100000     
  0.997750341900000      -3.187187249000000E-004  0.183564782100000     
  0.997724413900000      -3.223923850000000E-004  0.183492437000000     
  0.997698307000000      -3.260880767000000E-004  0.183419853400000     
  0.997672021400000      -3.298059164000000E-004  0.183347031500000     
  0.997645556900000      -3.335460497000000E-004  0.183273941300000     
  0.997618973300000      -3.373085929000000E-004  0.183200627600000     
  0.997592210800000      -3.410936915000000E-004  0.183127045600000     
  0.997565269500000      -3.449014621000000E-004  0.183053225300000     
  0.997538209000000      -3.487320500000000E-004  0.182979166500000     
  0.997510969600000      -3.525856009000000E-004  0.182904854400000     
  0.997483551500000      -3.564622311000000E-004  0.182830289000000     
  0.997455954600000      -3.603620862000000E-004  0.182755485200000     
  0.997428238400000      -3.642852826000000E-004  0.182680442900000     
  0.997400343400000      -3.682319948000000E-004  0.182605147400000     
  0.997372269600000      -3.722023102000000E-004  0.182529598500000     
  0.997344017000000      -3.761964326000000E-004  0.182453811200000     
  0.997315585600000      -3.802144784000000E-004  0.182377770500000     
  0.997286975400000      -3.842565638000000E-004  0.182301491500000     
  0.997258245900000      -3.883228346000000E-004  0.182224959100000     
  0.997229278100000      -3.924134653000000E-004  0.182148173500000     
  0.997200191000000      -3.965285723000000E-004  0.182071149300000     
  0.997170925100000      -4.006683012000000E-004  0.181993886800000     
  0.997141480400000      -4.048328265000000E-004  0.181916371000000     
  0.997111797300000      -4.090222355000000E-004  0.181838601800000     
  0.997081995000000      -4.132367321000000E-004  0.181760594200000     
  0.997052013900000      -4.174764326000000E-004  0.181682333400000     
  0.997021853900000      -4.217415117000000E-004  0.181603819100000     
  0.996991455600000      -4.260320857000000E-004  0.181525066500000     
  0.996960938000000      -4.303483292000000E-004  0.181446060500000     
  0.996930241600000      -4.346903879000000E-004  0.181366801300000     
  0.996899306800000      -4.390584072000000E-004  0.181287303600000     
  0.996868193100000      -4.434525326000000E-004  0.181207552600000     
  0.996836960300000      -4.478729388000000E-004  0.181127563100000     
  0.996805489100000      -4.523197422000000E-004  0.181047305500000     
  0.996773839000000      -4.567931464000000E-004  0.180966809400000     
  0.996741950500000      -4.612932971000000E-004  0.180886074900000     
  0.996709942800000      -4.658203397000000E-004  0.180805072200000     
  0.996677696700000      -4.703744198000000E-004  0.180723831100000     
  0.996645271800000      -4.749556829000000E-004  0.180642321700000     
  0.996612668000000      -4.795643617000000E-004  0.180560573900000     
  0.996579825900000      -4.842005437000000E-004  0.180478587700000     
  0.996546804900000      -4.888644326000000E-004  0.180396333300000     
  0.996513605100000      -4.935561446000000E-004  0.180313825600000     
  0.996480166900000      -4.982759128000000E-004  0.180231079500000     
  0.996446549900000      -5.030238535000000E-004  0.180148065100000     
  0.996412754100000      -5.078000831000000E-004  0.180064812300000     
  0.996378719800000      -5.126048927000000E-004  0.179981291300000     
  0.996344506700000      -5.174383405000000E-004  0.179897531900000     
  0.996310055300000      -5.223006592000000E-004  0.179813504200000     
  0.996275425000000      -5.271920236000000E-004  0.179729238200000     
  0.996240615800000      -5.321124918000000E-004  0.179644703900000     
  0.996205568300000      -5.370623548999999E-004  0.179559916300000     
  0.996170282400000      -5.420417874000000E-004  0.179474875300000     
  0.996134817600000      -5.470509059000000E-004  0.179389581100000     
  0.996099114400000      -5.520898267000000E-004  0.179304033500000     
  0.996063232400000      -5.571588990000000E-004  0.179218232600000     
  0.996027112000000      -5.622581230000000E-004  0.179132163500000     
  0.995990753200000      -5.673877895000000E-004  0.179045841100000     
  0.995954215500000      -5.725480150000000E-004  0.178959265400000     
  0.995917439500000      -5.777389742000000E-004  0.178872421400000     
  0.995880425000000      -5.829608999000000E-004  0.178785339000000     
  0.995843231700000      -5.882139667000000E-004  0.178697973500000     
  0.995805740400000      -5.934982910000000E-004  0.178610369600000     
  0.995768070200000      -5.988141056000000E-004  0.178522497400000     
  0.995730221300000      -6.041616434000000E-004  0.178434357000000     
  0.995692074300000      -6.095409626000000E-004  0.178345978300000     
  0.995653748500000      -6.149523542000000E-004  0.178257316400000     
  0.995615124700000      -6.203959346999999E-004  0.178168401100000     
  0.995576322100000      -6.258719950000000E-004  0.178079232600000     
  0.995537281000000      -6.313805934000000E-004  0.177989795800000     
  0.995498001600000      -6.369219627000000E-004  0.177900090800000     
  0.995458483700000      -6.424963940000000E-004  0.177810132500000     
  0.995418727400000      -6.481039454000000E-004  0.177719906000000     
  0.995378732700000      -6.537448497999999E-004  0.177629411200000     
  0.995338559200000      -6.594193401000000E-004  0.177538663100000     
  0.995298087600000      -6.651275908000000E-004  0.177447646900000     
  0.995257318000000      -6.708697765000000E-004  0.177356362300000     
  0.995216369600000      -6.766461302000000E-004  0.177264809600000     
  0.995175182800000      -6.824568263000000E-004  0.177173003600000     
  0.995133757600000      -6.883020396000000E-004  0.177080914400000     
  0.995092034300000      -6.941820029000000E-004  0.176988571900000     
  0.995050072700000      -7.000969490000000E-004  0.176895961200000     
  0.995007872600000      -7.060470525000000E-004  0.176803082200000     
  0.994965434100000      -7.120324881000000E-004  0.176709935100000     
  0.994922697500000      -7.180534885000000E-004  0.176616519700000     
  0.994879782200000      -7.241102867000000E-004  0.176522836100000     
  0.994836509200000      -7.302029990000000E-004  0.176428869400000     
  0.994793057400000      -7.363319746000000E-004  0.176334649300000     
  0.994749307600000      -7.424972719000000E-004  0.176240161100000     
  0.994705319400000      -7.486992399000000E-004  0.176145389700000     
  0.994661033200000      -7.549379370000000E-004  0.176050365000000     
  0.994616508500000      -7.612137706000000E-004  0.175955057100000     
  0.994571685800000      -7.675267407000000E-004  0.175859466200000     
  0.994526624700000      -7.738772547000000E-004  0.175763621900000     
  0.994481325100000      -7.802654291000000E-004  0.175667494500000     
  0.994435668000000      -7.866914966000000E-004  0.175571098900000     
  0.994389832000000      -7.931556320000000E-004  0.175474435100000     
  0.994343638400000      -7.996581262000000E-004  0.175377488100000     
  0.994297206400000      -8.061992121000000E-004  0.175280273000000     
  0.994250476400000      -8.127790643000000E-004  0.175182789600000     
  0.994203507900000      -8.193978574000000E-004  0.175085023000000     
  0.994156241400000      -8.260559407000000E-004  0.174986973400000     
  0.994108676900000      -8.327534888000000E-004  0.174888655500000     
  0.994060814400000      -8.394906763000000E-004  0.174790069500000     
  0.994012713400000      -8.462677943000000E-004  0.174691200300000     
  0.993964314500000      -8.530850755000000E-004  0.174592047900000     
  0.993915617500000      -8.599426947000000E-004  0.174492627400000     
  0.993866622400000      -8.668408846000000E-004  0.174392923700000     
  0.993817329400000      -8.737799944000000E-004  0.174292951800000     
  0.993767738300000      -8.807601407000000E-004  0.174192696800000     
  0.993717849300000      -8.877815562000000E-004  0.174092158700000     
  0.993667662100000      -8.948445902000000E-004  0.173991337400000     
  0.993617177000000      -9.019493591000000E-004  0.173890233000000     
  0.993566393900000      -9.090962121000000E-004  0.173788860400000     
  0.993515312700000      -9.162852657000000E-004  0.173687204700000     
  0.993463933500000      -9.235168691000000E-004  0.173585265900000     
  0.993412256200000      -9.307911969000000E-004  0.173483058800000     
  0.993360221400000      -9.381085983000000E-004  0.173380553700000     
  0.993307888500000      -9.454691899000000E-004  0.173277765500000     
  0.993255257600000      -9.528732626000000E-004  0.173174709100000     
  0.993202328700000      -9.603211074000000E-004  0.173071369500000     
  0.993149101700000      -9.678129572000000E-004  0.172967732000000     
  0.993095517200000      -9.753490449000000E-004  0.172863826200000     
  0.993041634600000      -9.829296031999999E-004  0.172759622300000     
  0.992987394300000      -9.905549232000000E-004  0.172655150300000     
  0.992932856100000      -9.982252959000000E-004  0.172550380200000     
  0.992877960200000      -1.005940954000000E-003  0.172445341900000     
  0.992822766300000      -1.013702131000000E-003  0.172340005600000     
  0.992767274400000      -1.021509059000000E-003  0.172234386200000     
  0.992711365200000      -1.029362087000000E-003  0.172128483700000     
  0.992655217600000      -1.037261449000000E-003  0.172022298000000     
  0.992598652800000      -1.045207260000000E-003  0.171915814300000     
  0.992541790000000      -1.053200103000000E-003  0.171809047500000     
  0.992484629200000      -1.061239978000000E-003  0.171701997500000     
  0.992427051100000      -1.069327118000000E-003  0.171594664500000     
  0.992369175000000      -1.077462104000000E-003  0.171487048300000     
  0.992310941200000      -1.085644937000000E-003  0.171379134100000     
  0.992252349900000      -1.093875850000000E-003  0.171270936700000     
  0.992193460500000      -1.102155424000000E-003  0.171162441400000     
  0.992134153800000      -1.110483659000000E-003  0.171053677800000     
  0.992074549200000      -1.118860906000000E-003  0.170944616200000     
  0.992014527300000      -1.127287513000000E-003  0.170835256600000     
  0.991954207400000      -1.135763596000000E-003  0.170725613800000     
  0.991893470300000      -1.144289621000000E-003  0.170615688000000     
  0.991832435100000      -1.152865821000000E-003  0.170505464100000     
  0.991770982700000      -1.161492430000000E-003  0.170394957100000     
  0.991709172700000      -1.170169679000000E-003  0.170284152000000     
  0.991647005100000      -1.178898034000000E-003  0.170173063900000     
  0.991584479800000      -1.187677728000000E-003  0.170061677700000     
  0.991521596900000      -1.196508878000000E-003  0.169950008400000     
  0.991458296800000      -1.205392065000000E-003  0.169838041100000     
  0.991394639000000      -1.214327291000000E-003  0.169725775700000     
  0.991330564000000      -1.223315019000000E-003  0.169613242100000     
  0.991266191000000      -1.232355600000000E-003  0.169500395700000     
  0.991201341200000      -1.241449150000000E-003  0.169387266000000     
  0.991136193300000      -1.250596135000000E-003  0.169273838400000     
  0.991070568600000      -1.259796787000000E-003  0.169160127600000     
  0.991004645800000      -1.269051339000000E-003  0.169046118900000     
  0.990938246300000      -1.278360258000000E-003  0.168931826900000     
  0.990871489000000      -1.287723659000000E-003  0.168817237000000     
  0.990804374200000      -1.297142007000000E-003  0.168702349100000     
  0.990736782600000      -1.306615537000000E-003  0.168587178000000     
  0.990668833300000      -1.316144597000000E-003  0.168471694000000     
  0.990600526300000      -1.325729536000000E-003  0.168355941800000     
  0.990531742600000      -1.335370587000000E-003  0.168239876600000     
  0.990462541600000      -1.345067983000000E-003  0.168123528400000     
  0.990392983000000      -1.354822307000000E-003  0.168006882100000     
  0.990323007100000      -1.364633674000000E-003  0.167889952700000     
  0.990252554400000      -1.374502433000000E-003  0.167772725200000     
  0.990181744100000      -1.384428935000000E-003  0.167655199800000     
  0.990110516500000      -1.394413412000000E-003  0.167537376300000     
  0.990038812200000      -1.404456445000000E-003  0.167419269700000     
  0.989966750100000      -1.414558035000000E-003  0.167300865100000     
  0.989894211300000      -1.424718765000000E-003  0.167182162400000     
  0.989821255200000      -1.434938866000000E-003  0.167063161700000     
  0.989747881900000      -1.445218688000000E-003  0.166943877900000     
  0.989674031700000      -1.455558464000000E-003  0.166824296100000     
  0.989599764300000      -1.465958660000000E-003  0.166704416300000     
  0.989525079700000      -1.476419624000000E-003  0.166584253300000     
  0.989449918300000      -1.486941590000000E-003  0.166463777400000     
  0.989374339600000      -1.497524907000000E-003  0.166343018400000     
  0.989298284100000      -1.508170040000000E-003  0.166221976300000     
  0.989221811300000      -1.518877223000000E-003  0.166100621200000     
  0.989144861700000      -1.529646805000000E-003  0.165978983000000     
  0.989067435300000      -1.540479250000000E-003  0.165857046800000     
  0.988989591600000      -1.551374793000000E-003  0.165734812600000     
  0.988911271100000      -1.562333782000000E-003  0.165612295300000     
  0.988832473800000      -1.573356567000000E-003  0.165489479900000     
  0.988753259200000      -1.584443613000000E-003  0.165366366500000     
  0.988673508200000      -1.595595153000000E-003  0.165242970000000     
  0.988593339900000      -1.606811653000000E-003  0.165119260500000     
  0.988512635200000      -1.618093345000000E-003  0.164995282900000     
  0.988431513300000      -1.629440696000000E-003  0.164870992300000     
  0.988349914600000      -1.640854054000000E-003  0.164746418600000     
  0.988267779400000      -1.652333769000000E-003  0.164621546900000     
  0.988185167300000      -1.663880190000000E-003  0.164496377100000     
  0.988102078400000      -1.675493666000000E-003  0.164370924200000     
  0.988018512700000      -1.687174663000000E-003  0.164245173300000     
  0.987934470200000      -1.698923414000000E-003  0.164119139300000     
  0.987849891200000      -1.710740500000000E-003  0.163992807300000     
  0.987764835400000      -1.722626155000000E-003  0.163866177200000     
  0.987679302700000      -1.734580728000000E-003  0.163739264000000     
  0.987593174000000      -1.746604568000000E-003  0.163612052800000     
  0.987506628000000      -1.758698258000000E-003  0.163484543600000     
  0.987419545700000      -1.770862029000000E-003  0.163356751200000     
  0.987331926800000      -1.783096348000000E-003  0.163228675700000     
  0.987243831200000      -1.795401447000000E-003  0.163100302200000     
  0.987155139400000      -1.807777910000000E-003  0.162971630700000     
  0.987065970900000      -1.820226084000000E-003  0.162842690900000     
  0.986976325500000      -1.832746202000000E-003  0.162713438300000     
  0.986886084100000      -1.845338847000000E-003  0.162583902500000     
  0.986795306200000      -1.858004369000000E-003  0.162454083600000     
  0.986704051500000      -1.870743115000000E-003  0.162323966600000     
  0.986612200700000      -1.883555553000000E-003  0.162193566600000     
  0.986519813500000      -1.896442031000000E-003  0.162062883400000     
  0.986426949500000      -1.909403014000000E-003  0.161931902200000     
  0.986333489400000      -1.922438852000000E-003  0.161800637800000     
  0.986239433300000      -1.935549895000000E-003  0.161669090400000     
  0.986144900300000      -1.948736724000000E-003  0.161537244900000     
  0.986049771300000      -1.961999573000000E-003  0.161405131200000     
  0.985954105900000      -1.975339139000000E-003  0.161272719500000     
  0.985857844400000      -1.988755306000000E-003  0.161140009800000     
  0.985761046400000      -2.002249239000000E-003  0.161007031800000     
  0.985663652400000      -2.015820704000000E-003  0.160873770700000     
  0.985565662400000      -2.029470401000000E-003  0.160740211600000     
  0.985467135900000      -2.043198794000000E-003  0.160606384300000     
  0.985368013400000      -2.057006117000000E-003  0.160472258900000     
  0.985268354400000      -2.070893068000000E-003  0.160337865400000     
  0.985168039800000      -2.084859880000000E-003  0.160203173800000     
  0.985067188700000      -2.098907018000000E-003  0.160068213900000     
  0.984965741600000      -2.113034949000000E-003  0.159932956100000     
  0.984863638900000      -2.127244137000000E-003  0.159797430000000     
  0.984760999700000      -2.141534816000000E-003  0.159661620900000     
  0.984657764400000      -2.155907918000000E-003  0.159525543500000     
  0.984553873500000      -2.170363208000000E-003  0.159389168000000     
  0.984449386600000      -2.184901852000000E-003  0.159252524400000     
  0.984344303600000      -2.199523617000000E-003  0.159115597600000     
  0.984238624600000      -2.214229433000000E-003  0.158978402600000     
  0.984132289900000      -2.229019534000000E-003  0.158840924500000     
  0.984025299500000      -2.243894618000000E-003  0.158703163300000     
  0.983917713200000      -2.258854685000000E-003  0.158565133800000     
  0.983809530700000      -2.273900667000000E-003  0.158426836100000     
  0.983700692700000      -2.289032564000000E-003  0.158288255300000     
  0.983591198900000      -2.304251306000000E-003  0.158149391400000     
  0.983481049500000      -2.319557127000000E-003  0.158010274200000     
  0.983370304100000      -2.334950492000000E-003  0.157870873800000     
  0.983258903000000      -2.350431634000000E-003  0.157731205200000     
  0.983146786700000      -2.366001485000000E-003  0.157591268400000     
  0.983034074300000      -2.381660510000000E-003  0.157451048500000     
  0.982920706300000      -2.397408709000000E-003  0.157310575200000     
  0.982806623000000      -2.413246781000000E-003  0.157169833800000     
  0.982691943600000      -2.429175423000000E-003  0.157028809200000     
  0.982576549100000      -2.445194870000000E-003  0.156887531300000     
  0.982460498800000      -2.461305819000000E-003  0.156745985200000     
  0.982343733300000      -2.477508504000000E-003  0.156604170800000     
  0.982226312200000      -2.493803622000000E-003  0.156462088200000     
  0.982108175800000      -2.510191407000000E-003  0.156319752300000     
  0.981989383700000      -2.526672557000000E-003  0.156177148200000     
  0.981869936000000      -2.543247538000000E-003  0.156034290800000     
  0.981749713400000      -2.559916815000000E-003  0.155891165100000     
  0.981628835200000      -2.576681087000000E-003  0.155747771300000     
  0.981507241700000      -2.593540587000000E-003  0.155604124100000     
  0.981384933000000      -2.610495780000000E-003  0.155460223600000     
  0.981261909000000      -2.627547365000000E-003  0.155316069700000     
  0.981138169800000      -2.644695807000000E-003  0.155171647700000     
  0.981013715300000      -2.661941340000000E-003  0.155026972300000     
  0.980888485900000      -2.679285128000000E-003  0.154882058500000     
  0.980762600900000      -2.696726937000000E-003  0.154736876500000     
  0.980635941000000      -2.714267699000000E-003  0.154591441200000     
  0.980508565900000      -2.731908113000000E-003  0.154445767400000     
  0.980380415900000      -2.749648178000000E-003  0.154299825400000     
  0.980251550700000      -2.767488593000000E-003  0.154153645000000     
  0.980121910600000      -2.785430290000000E-003  0.154007226200000     
  0.979991555200000      -2.803473268000000E-003  0.153860539200000     
  0.979860425000000      -2.821618225000000E-003  0.153713628600000     
  0.979728519900000      -2.839865861000000E-003  0.153566449900000     
  0.979595840000000      -2.858216641000000E-003  0.153419047600000     
  0.979462385200000      -2.876671031000000E-003  0.153271392000000     
  0.979328155500000      -2.895229496000000E-003  0.153123498000000     
  0.979193210600000      -2.913892502000000E-003  0.152975365500000     
  0.979057431200000      -2.932660980000000E-003  0.152826994700000     
  0.978920817400000      -2.951535163000000E-003  0.152678385400000     
  0.978783488300000      -2.970515750000000E-003  0.152529537700000     
  0.978645324700000      -2.989603207000000E-003  0.152380466500000     
  0.978506386300000      -3.008797998000000E-003  0.152231141900000     
  0.978366613400000      -3.028101055000000E-003  0.152081593900000     