# LES long-time-average Cp, Mj approx = 0.39
VARIABLES = "x/c","Cp"
ZONE T="LES coanda surface"
 9.054346349E-01 -4.154261112E+00
 9.055509903E-01 -4.125557423E+00
 9.056682669E-01 -4.095842361E+00
 9.057864896E-01 -4.066348076E+00
 9.059056841E-01 -4.036808968E+00
 9.060258766E-01 -4.007280350E+00
 9.061470940E-01 -3.977746964E+00
 9.062693641E-01 -3.948204994E+00
 9.063927153E-01 -3.918646336E+00
 9.065171766E-01 -3.889060020E+00
 9.066427779E-01 -3.859440088E+00
 9.067695485E-01 -3.829777718E+00
 9.068975194E-01 -3.800071716E+00
 9.070267232E-01 -3.770313501E+00
 9.071571931E-01 -3.740505457E+00
 9.072889635E-01 -3.710641384E+00
 9.074220698E-01 -3.681248665E+00
 9.075565483E-01 -3.651321173E+00
 9.076924363E-01 -3.621329069E+00
 9.078297724E-01 -3.591262579E+00
 9.079685943E-01 -3.560455322E+00
 9.081089425E-01 -3.530210972E+00
 9.082508592E-01 -3.499879599E+00
 9.083943879E-01 -3.469436169E+00
 9.085395734E-01 -3.438867807E+00
 9.086864620E-01 -3.408139944E+00
 9.088351014E-01 -3.377228975E+00
 9.089855409E-01 -3.346090317E+00
 9.091378293E-01 -3.314683914E+00
 9.092920184E-01 -3.282946587E+00
 9.094481627E-01 -3.250816345E+00
 9.096063183E-01 -3.218181849E+00
 9.097665433E-01 -3.184929609E+00
 9.099288980E-01 -3.150905609E+00
 9.100934446E-01 -3.115926027E+00
 9.102602461E-01 -3.079781294E+00
 9.104293670E-01 -3.042325974E+00
 9.106008766E-01 -3.003546715E+00
 9.107748464E-01 -2.963677168E+00
 9.109513507E-01 -2.923168898E+00
 9.111304667E-01 -2.882654667E+00
 9.113122742E-01 -2.842981577E+00
 9.114968532E-01 -2.805183887E+00
 9.116842886E-01 -2.770278215E+00
 9.118746699E-01 -2.739091635E+00
 9.120680900E-01 -2.712253094E+00
 9.122646456E-01 -2.690090179E+00
 9.124644374E-01 -2.672918081E+00
 9.126675666E-01 -2.661237717E+00
 9.128741403E-01 -2.655210257E+00
 9.130842717E-01 -2.654510021E+00
 9.132980790E-01 -2.658454418E+00
 9.135156855E-01 -2.666456223E+00
 9.137372183E-01 -2.678118229E+00
 9.139628067E-01 -2.691499710E+00
 9.141925901E-01 -2.711195469E+00
 9.144267143E-01 -2.733834505E+00
 9.146653319E-01 -2.758706093E+00
 9.149086012E-01 -2.785913229E+00
 9.151566831E-01 -2.814849615E+00
 9.154097513E-01 -2.845001459E+00
 9.156679884E-01 -2.875737190E+00
 9.159315858E-01 -2.906763315E+00
 9.162007393E-01 -2.937725306E+00
 9.164756545E-01 -2.968337774E+00
 9.167565518E-01 -2.998173714E+00
 9.170436629E-01 -3.027010441E+00
 9.173372243E-01 -3.054792166E+00
 9.176374898E-01 -3.081852436E+00
 9.179447254E-01 -3.107740641E+00
 9.182592115E-01 -3.132282257E+00
 9.185812419E-01 -3.155267239E+00
 9.189111266E-01 -3.177238226E+00
 9.192491931E-01 -3.198229790E+00
 9.195957860E-01 -3.218915462E+00
 9.199512692E-01 -3.238811016E+00
 9.203160274E-01 -3.258504391E+00
 9.206904674E-01 -3.277145863E+00
 9.210750191E-01 -3.294701815E+00
 9.214701379E-01 -3.314155102E+00
 9.218763062E-01 -3.324952602E+00
 9.222830087E-01 -3.339936256E+00
 9.226893904E-01 -3.362022877E+00
 9.230954436E-01 -3.379007578E+00
 9.235011606E-01 -3.395998955E+00
 9.239065337E-01 -3.411966085E+00
 9.243115550E-01 -3.427025080E+00
 9.247162170E-01 -3.441118717E+00
 9.251205119E-01 -3.454597473E+00
 9.255244320E-01 -3.467511892E+00
 9.259279696E-01 -3.479552031E+00
 9.263311171E-01 -3.490566730E+00
 9.267338668E-01 -3.500763178E+00
 9.271362109E-01 -3.510485888E+00
 9.275381419E-01 -3.519872189E+00
 9.279396521E-01 -3.528899193E+00
 9.283407338E-01 -3.537587881E+00
 9.287413794E-01 -3.545940638E+00
 9.291415814E-01 -3.553945303E+00
 9.295413319E-01 -3.561655998E+00
 9.299406236E-01 -3.569185972E+00
 9.303393756E-01 -3.576590776E+00
 9.307376405E-01 -3.583814621E+00
 9.311354182E-01 -3.590821266E+00
 9.315327088E-01 -3.597531557E+00
 9.319295122E-01 -3.603691339E+00
 9.323258231E-01 -3.609048843E+00
 9.327216104E-01 -3.613544703E+00
 9.331168690E-01 -3.617298603E+00
 9.335115991E-01 -3.620442867E+00
 9.339058005E-01 -3.623001575E+00
 9.342994733E-01 -3.625019789E+00
 9.346925967E-01 -3.626645088E+00
 9.350851502E-01 -3.627973557E+00
 9.354771338E-01 -3.629045963E+00
 9.358685476E-01 -3.629956722E+00
 9.362593915E-01 -3.630789280E+00
 9.366496606E-01 -3.631560564E+00
 9.370393243E-01 -3.632307291E+00
 9.374283770E-01 -3.633064985E+00
 9.378168188E-01 -3.633757353E+00
 9.382046498E-01 -3.634214401E+00
 9.385918697E-01 -3.634298086E+00
 9.389784603E-01 -3.633975744E+00
 9.393643991E-01 -3.633313417E+00
 9.397496863E-01 -3.632368088E+00
 9.401343218E-01 -3.631111145E+00
 9.405183057E-01 -3.629518270E+00
 9.409016344E-01 -3.627602339E+00
 9.412842780E-01 -3.625350952E+00
 9.416662294E-01 -3.622741938E+00
 9.420474886E-01 -3.619808912E+00
 9.424280558E-01 -3.616608858E+00
 9.428079308E-01 -3.613177299E+00
 9.431870988E-01 -3.609573841E+00
 9.435655349E-01 -3.605889082E+00
 9.439432388E-01 -3.602139473E+00
 9.443202105E-01 -3.598238707E+00
 9.446964498E-01 -3.594094992E+00
 9.450719551E-01 -3.589693308E+00
 9.454466982E-01 -3.585057974E+00
 9.458206692E-01 -3.580195189E+00
 9.461938682E-01 -3.575106144E+00
 9.465662953E-01 -3.569804907E+00
 9.469379503E-01 -3.564340830E+00
 9.473088228E-01 -3.558786392E+00
 9.476788853E-01 -3.553136587E+00
 9.480481365E-01 -3.547286749E+00
 9.484165763E-01 -3.541106701E+00
 9.487842049E-01 -3.534559250E+00
 9.491510216E-01 -3.527680159E+00
 9.495170017E-01 -3.520486355E+00
 9.498821316E-01 -3.512976170E+00
 9.502464113E-01 -3.505134344E+00
 9.506098409E-01 -3.496967077E+00
 9.509724202E-01 -3.488544941E+00
 9.513341477E-01 -3.479948044E+00
 9.516949909E-01 -3.471205473E+00
 9.520549424E-01 -3.462264538E+00
 9.524140021E-01 -3.453122616E+00
 9.527721702E-01 -3.443902731E+00
 9.531294465E-01 -3.434697628E+00
 9.534858308E-01 -3.425463676E+00
 9.538412974E-01 -3.416061163E+00
 9.541958282E-01 -3.406335115E+00
 9.545494232E-01 -3.396205902E+00
 9.549020826E-01 -3.385738134E+00
 9.552538064E-01 -3.375059605E+00
 9.556045944E-01 -3.364261627E+00
 9.559544387E-01 -3.353335381E+00
 9.563033073E-01 -3.342226982E+00
 9.566511970E-01 -3.330881834E+00
 9.569981078E-01 -3.319236994E+00
 9.573440398E-01 -3.307239056E+00
 9.576889928E-01 -3.294882059E+00
 9.580329665E-01 -3.282276154E+00
 9.583759354E-01 -3.269557953E+00
 9.587178828E-01 -3.256743193E+00
 9.590588089E-01 -3.243783951E+00
 9.593987138E-01 -3.230695963E+00
 9.597375973E-01 -3.217540741E+00
 9.600754595E-01 -3.204316616E+00
 9.604122919E-01 -3.190942287E+00
 9.607480641E-01 -3.177304268E+00
 9.610827733E-01 -3.163348436E+00
 9.614164198E-01 -3.149106741E+00
 9.617490034E-01 -3.134637117E+00
 9.620805242E-01 -3.120007992E+00
 9.624109815E-01 -3.105279446E+00
 9.627403494E-01 -3.090467453E+00
 9.630686138E-01 -3.075539112E+00
 9.633957747E-01 -3.060435534E+00
 9.637218322E-01 -3.045117140E+00
 9.640467862E-01 -3.029584169E+00
 9.643706366E-01 -3.013852835E+00
 9.646933737E-01 -2.997942448E+00
 9.650149694E-01 -2.981864691E+00
 9.653354218E-01 -2.965654612E+00
 9.656547311E-01 -2.949342728E+00
 9.659728973E-01 -2.932941914E+00
 9.662899203E-01 -2.916488886E+00
 9.666057988E-01 -2.899988174E+00
 9.669205062E-01 -2.883348942E+00
 9.672340317E-01 -2.866478920E+00
 9.675463753E-01 -2.849382877E+00
 9.678575372E-01 -2.832192421E+00
 9.681675172E-01 -2.815024137E+00
 9.684763152E-01 -2.797904491E+00
 9.687839188E-01 -2.780757189E+00
 9.690903033E-01 -2.763454914E+00
 9.693954683E-01 -2.745922804E+00
 9.696994139E-01 -2.728189230E+00
 9.700021400E-01 -2.710346699E+00
 9.703036465E-01 -2.692444086E+00
 9.706039305E-01 -2.674441338E+00
 9.709029648E-01 -2.656246901E+00
 9.712007429E-01 -2.637793779E+00
 9.714972649E-01 -2.619038582E+00
 9.717925310E-01 -2.600002527E+00
 9.720865409E-01 -2.580798626E+00
 9.723792947E-01 -2.561561346E+00
 9.726709233E-01 -2.542327881E+00
 9.729612310E-01 -2.523086786E+00
 9.732502185E-01 -2.503754854E+00
 9.735378861E-01 -2.484252691E+00
 9.738242342E-01 -2.464586735E+00
 9.741092631E-01 -2.444724560E+00
 9.743929729E-01 -2.424624443E+00
 9.746753639E-01 -2.404272556E+00
 9.749564360E-01 -2.383660316E+00
 9.752361893E-01 -2.362804651E+00
 9.755146236E-01 -2.341807365E+00
 9.757917387E-01 -2.320753336E+00
 9.760675345E-01 -2.299647331E+00
 9.763420107E-01 -2.278500557E+00
 9.766151667E-01 -2.257219791E+00
 9.768870021E-01 -2.235709429E+00
 9.771575085E-01 -2.214010239E+00
 9.774266205E-01 -2.192185163E+00
 9.776943261E-01 -2.170229673E+00
 9.779606257E-01 -2.148069620E+00
 9.782255198E-01 -2.125671625E+00
 9.784890088E-01 -2.103009224E+00
 9.787510928E-01 -2.080067873E+00
 9.790117721E-01 -2.056785822E+00
 9.792710469E-01 -2.033172846E+00
 9.795289171E-01 -2.009394407E+00
 9.797853827E-01 -1.985509515E+00
 9.800404435E-01 -1.961568713E+00
 9.802940994E-01 -1.937552810E+00
 9.805463500E-01 -1.913319349E+00
 9.807971951E-01 -1.888909459E+00
 9.810466341E-01 -1.864536643E+00
 9.812946665E-01 -1.840171933E+00
 9.815412796E-01 -1.815640211E+00
 9.817864126E-01 -1.790973425E+00
 9.820300587E-01 -1.766005874E+00
 9.822722185E-01 -1.740503311E+00
 9.825128924E-01 -1.714458585E+00
 9.827520808E-01 -1.688131928E+00
 9.829897840E-01 -1.661828518E+00
 9.832260023E-01 -1.635472059E+00
 9.834607357E-01 -1.608833790E+00
 9.836939843E-01 -1.581973672E+00
 9.839257481E-01 -1.554938078E+00
 9.841560269E-01 -1.527676463E+00
 9.843848205E-01 -1.500266314E+00
 9.846121286E-01 -1.472614050E+00
 9.848379508E-01 -1.444597960E+00
 9.850622867E-01 -1.416119456E+00
 9.852851357E-01 -1.387123227E+00
 9.855064952E-01 -1.357771873E+00
 9.857263134E-01 -1.328213453E+00
 9.859445708E-01 -1.298472404E+00
 9.861612679E-01 -1.268331885E+00
 9.863764052E-01 -1.237638116E+00
 9.865899833E-01 -1.206511021E+00
 9.868020024E-01 -1.175158381E+00
 9.870124629E-01 -1.143864274E+00
 9.872213649E-01 -1.112719893E+00
 9.874287084E-01 -1.081507444E+00
 9.876344936E-01 -1.049988031E+00
 9.878387203E-01 -1.018020034E+00
 9.880413883E-01 -9.854847193E-01
 9.882424973E-01 -9.528926611E-01
 9.884420471E-01 -9.208833575E-01
 9.886400371E-01 -8.890413642E-01
 9.888364669E-01 -8.568894267E-01
 9.890313358E-01 -8.245097399E-01
 9.892246331E-01 -7.918943167E-01
 9.894163091E-01 -7.588691711E-01
 9.896063586E-01 -7.254196405E-01
 9.897947820E-01 -6.918745041E-01
 9.899815799E-01 -6.580812931E-01
 9.901667528E-01 -6.237835288E-01
 9.903503010E-01 -5.895247459E-01
 9.905322248E-01 -5.556572080E-01
 9.907125244E-01 -5.224328041E-01
 9.908911999E-01 -4.902992547E-01
 9.910682512E-01 -4.593551755E-01
 9.912436783E-01 -4.290002286E-01
 9.914174809E-01 -3.991438150E-01
 9.915896588E-01 -3.701766431E-01
 9.917602116E-01 -3.411779106E-01
 9.919291387E-01 -3.078111708E-01
 9.920964397E-01 -2.784672081E-01
 9.922621139E-01 -2.481976449E-01
 9.924261529E-01 -2.184021920E-01
 9.925885139E-01 -1.902218014E-01
 9.927491912E-01 -1.631756872E-01
 9.929081856E-01 -1.372654587E-01
 9.930654975E-01 -1.127432585E-01
 9.932211275E-01 -8.913871646E-02
 9.933750760E-01 -6.739884615E-02
 9.935273432E-01 -4.756643251E-02
 9.936779294E-01 -2.742336877E-02
 9.938268347E-01 -6.919039879E-03
 9.939740591E-01 1.515159942E-02
 9.941196024E-01 3.532262519E-02
 9.942634646E-01 5.027490109E-02
 9.944056452E-01 6.447899342E-02
 9.945461441E-01 7.818645239E-02
 9.946849606E-01 9.030051529E-02
 9.948220942E-01 1.031303033E-01
 9.949575442E-01 1.174790114E-01
 9.950913092E-01 1.304065436E-01
 9.952233581E-01 1.417296231E-01
 9.953536760E-01 1.547968388E-01
 9.954822638E-01 1.650626510E-01
 9.956091221E-01 1.692767441E-01
 9.957342514E-01 1.751697063E-01
 9.958576522E-01 1.858872622E-01
 9.959793248E-01 1.954399198E-01
 9.960992695E-01 2.024003267E-01
 9.962174865E-01 2.124925256E-01
 9.963339757E-01 2.233168334E-01
 9.964487372E-01 2.321525812E-01
 9.965617707E-01 2.383554578E-01
 9.966730762E-01 2.430998087E-01
 9.967826531E-01 2.470414042E-01
 9.968905012E-01 2.501965463E-01
 9.969966197E-01 2.562898695E-01
 9.971010082E-01 2.641371787E-01
 9.972036659E-01 2.718111575E-01
 9.973045854E-01 2.801640630E-01
 9.974037402E-01 2.894834876E-01
 9.975011283E-01 2.982392609E-01
 9.975967505E-01 3.058320582E-01
 9.976906074E-01 3.119705319E-01
 9.977826995E-01 3.178593218E-01
 9.978730273E-01 3.243457675E-01
 9.979615911E-01 3.312871456E-01
 9.980483910E-01 3.369521201E-01
 9.981334273E-01 3.411038816E-01
 9.982167000E-01 3.443886936E-01
 9.982982089E-01 3.464062810E-01
 9.983779540E-01 3.478119373E-01
 9.984559348E-01 3.488175869E-01
 9.985321511E-01 3.495027423E-01
 9.986066024E-01 3.500041366E-01
 9.986792881E-01 3.505049348E-01
 9.987502074E-01 3.509791493E-01
 9.988193597E-01 3.513497710E-01
 9.988867357E-01 3.516704440E-01
 9.989523202E-01 3.519845605E-01
 9.990161138E-01 3.523072302E-01
 9.990781171E-01 3.527093232E-01
 9.991383309E-01 3.532294035E-01
 9.991967555E-01 3.536241651E-01
 9.992533915E-01 3.539407849E-01
 9.993082392E-01 3.541060090E-01
 9.993612987E-01 3.542195261E-01
 9.994125703E-01 3.542849123E-01
 9.994620538E-01 3.542713523E-01
 9.995097492E-01 3.542449772E-01
 9.995556563E-01 3.542082906E-01
 9.995997748E-01 3.542056680E-01
 9.996421043E-01 3.542280495E-01
 9.996826443E-01 3.542919755E-01
 9.997213942E-01 3.544090688E-01
 9.997583533E-01 3.545833528E-01
 9.997935207E-01 3.548089862E-01
 9.998268905E-01 3.550816178E-01
 9.998584562E-01 3.553667665E-01
 9.998882187E-01 3.556208909E-01
 9.999161787E-01 3.558202088E-01
 9.999423368E-01 3.559521437E-01
 9.999666935E-01 3.560234904E-01
 9.999892493E-01 3.560285270E-01
 1.000010004E+00 3.559859395E-01
 1.000028959E+00 3.559403419E-01
 1.000046114E+00 3.559332788E-01
 1.000061468E+00 3.560398221E-01
 1.000075021E+00 3.563310504E-01
 1.000086774E+00 3.567307591E-01
 1.000096727E+00 3.572566807E-01
 1.000104877E+00 3.580330312E-01
 1.000111226E+00 3.588226438E-01
 1.000115773E+00 3.595154285E-01
 1.000118516E+00 3.606441915E-01
 1.000119455E+00 3.612837493E-01
 1.000118590E+00 3.618240952E-01
 1.000115921E+00 3.627272248E-01
 1.000111448E+00 3.631179333E-01
 1.000105173E+00 3.637056649E-01
 1.000097096E+00 3.645354807E-01
 1.000087218E+00 3.650644422E-01
 1.000075539E+00 3.655659258E-01
 1.000062059E+00 3.660314977E-01
 1.000046778E+00 3.664686680E-01
 1.000029698E+00 3.668688238E-01
 1.000010817E+00 3.668151498E-01
 9.999901355E-01 3.670045137E-01
 9.999676535E-01 3.670932353E-01
 9.999433706E-01 3.671320677E-01
 9.999172863E-01 3.671661913E-01
 9.998894002E-01 3.671979308E-01
 9.998597116E-01 3.672201633E-01
 9.998282198E-01 3.672461510E-01
 9.997949240E-01 3.673155010E-01
 9.997598300E-01 3.674732149E-01
 9.997229444E-01 3.677136898E-01
 9.996842679E-01 3.679960668E-01
 9.996438013E-01 3.683069646E-01
 9.996015451E-01 3.686399460E-01
 9.995575000E-01 3.689370453E-01
 9.995116662E-01 3.691391349E-01
 9.994640441E-01 3.692589998E-01
 9.994146339E-01 3.693245053E-01
 9.993634357E-01 3.693710864E-01
 9.993104495E-01 3.694449663E-01
 9.992556751E-01 3.695892394E-01
 9.991991124E-01 3.701198399E-01
 9.991407610E-01 3.702095449E-01
 9.990806206E-01 3.707303107E-01
 9.990186906E-01 3.713632822E-01
 9.989549704E-01 3.719947338E-01
 9.988894592E-01 3.724784553E-01
 9.988221565E-01 3.729122877E-01
 9.987530768E-01 3.733998239E-01
 9.986822300E-01 3.738656044E-01
 9.986096168E-01 3.743039370E-01
 9.985352380E-01 3.747100830E-01
 9.984590941E-01 3.750346303E-01
 9.983811856E-01 3.752741814E-01
 9.983015129E-01 3.754292428E-01
 9.982200763E-01 3.755556345E-01
 9.981368760E-01 3.758843839E-01
 9.980519120E-01 3.759357929E-01
 9.979651843E-01 3.761281967E-01
 9.978766928E-01 3.762687743E-01
 9.977864373E-01 3.763445914E-01
 9.976944175E-01 3.763014078E-01
 9.976006328E-01 3.760852516E-01
 9.975050829E-01 3.757013083E-01
 9.974077670E-01 3.751730025E-01
 9.973086845E-01 3.745381832E-01
 9.972078369E-01 3.740664124E-01
 9.971052505E-01 3.730469048E-01
 9.970009332E-01 3.720028996E-01
 9.968948857E-01 3.707627952E-01
 9.967871087E-01 3.694478869E-01
 9.966776028E-01 3.681006134E-01
 9.965663683E-01 3.667246699E-01
 9.964534056E-01 3.654278815E-01
 9.963387151E-01 3.643566668E-01
 9.962222967E-01 3.635654151E-01
 9.961041506E-01 3.630389571E-01
 9.959842767E-01 3.626879752E-01
 9.958626748E-01 3.624281883E-01
 9.957393448E-01 3.621829450E-01
 9.956142862E-01 3.617996573E-01
 9.954874986E-01 3.611828685E-01
 9.953589815E-01 3.604716063E-01
 9.952287342E-01 3.599228859E-01
 9.950967560E-01 3.595599532E-01
 9.949630607E-01 3.594105244E-01
 9.948276801E-01 3.596428335E-01
 9.946906158E-01 3.601705730E-01
 9.945518686E-01 3.607867360E-01
 9.944114390E-01 3.611689806E-01
 9.942693275E-01 3.610011041E-01
 9.941255344E-01 3.602635860E-01
 9.939800601E-01 3.591376841E-01
 9.938329047E-01 3.578409553E-01
 9.936840683E-01 3.564705551E-01
 9.935335510E-01 3.550188243E-01
 9.933813526E-01 3.535059392E-01
 9.932274729E-01 3.519875705E-01
 9.930719116E-01 3.504704833E-01
 9.929146684E-01 3.489463925E-01
 9.927557427E-01 3.474290967E-01
 9.925951340E-01 3.459336162E-01
 9.924328415E-01 3.444621861E-01
 9.922688705E-01 3.430119157E-01
 9.921032636E-01 3.415699601E-01
 9.919360298E-01 3.401388526E-01
 9.917671698E-01 3.387300372E-01
 9.915966841E-01 3.373439610E-01
 9.914245731E-01 3.360322416E-01
 9.912508374E-01 3.345770836E-01
 9.910754771E-01 3.331998885E-01
 9.908984925E-01 3.318578005E-01
 9.907198836E-01 3.305340707E-01
 9.905396505E-01 3.291935325E-01
 9.903577931E-01 3.278219104E-01
 9.901743113E-01 3.264235556E-01
 9.899892047E-01 3.250127137E-01
 9.898024730E-01 3.236078322E-01
 9.896141158E-01 3.222293854E-01
 9.894241325E-01 3.208957314E-01
 9.892325225E-01 3.196162581E-01
 9.890392907E-01 3.183907270E-01
 9.888444867E-01 3.172169030E-01
 9.886481216E-01 3.160952032E-01
 9.884501961E-01 3.150296211E-01
 9.882507108E-01 3.140257597E-01
 9.880496661E-01 3.130893111E-01
 9.878470623E-01 3.122245371E-01
 9.876428998E-01 3.114348352E-01
 9.874371787E-01 3.107230961E-01
 9.872298990E-01 3.100859225E-01
 9.870210609E-01 3.095105290E-01
 9.868106641E-01 3.089827299E-01
 9.865987086E-01 3.084940016E-01
 9.863851940E-01 3.080408275E-01
 9.861701200E-01 3.076254427E-01
 9.859534862E-01 3.072553575E-01
 9.857352920E-01 3.069385290E-01
 9.855155369E-01 3.066814840E-01
 9.852942397E-01 3.064904511E-01
 9.850714527E-01 3.063690066E-01
 9.848471786E-01 3.063145280E-01
 9.846214181E-01 3.063176870E-01
 9.843941716E-01 3.063668013E-01
 9.841654394E-01 3.064534664E-01
 9.839352218E-01 3.065748811E-01
 9.837035192E-01 3.067319989E-01
 9.834703316E-01 3.069258034E-01
 9.832356590E-01 3.071551919E-01
 9.829995014E-01 3.074163198E-01
 9.827618587E-01 3.077024519E-01
 9.825227307E-01 3.080052733E-01
 9.822821171E-01 3.083159029E-01
 9.820400175E-01 3.086266816E-01
 9.817964314E-01 3.089319468E-01
 9.815513582E-01 3.092282116E-01
 9.813048046E-01 3.095129728E-01
 9.810568311E-01 3.097841740E-01
 9.808074509E-01 3.100395203E-01
 9.805566645E-01 3.102772534E-01
 9.803044723E-01 3.104963899E-01
 9.800508746E-01 3.106965423E-01
 9.797958718E-01 3.108764291E-01
 9.795394642E-01 3.110330999E-01
 9.792816517E-01 3.111609519E-01
 9.790224345E-01 3.112550080E-01
 9.787618125E-01 3.113165498E-01
 9.784997857E-01 3.113565445E-01
 9.782363538E-01 3.113920391E-01
 9.779715165E-01 3.114389479E-01
 9.777052736E-01 3.115056157E-01
 9.774376245E-01 3.115931749E-01
 9.771685688E-01 3.117008209E-01
 9.768981184E-01 3.118280470E-01
 9.766263386E-01 3.119725287E-01
 9.763532380E-01 3.121283054E-01
 9.760788171E-01 3.122851849E-01
 9.758030763E-01 3.124347627E-01
 9.755260160E-01 3.125777841E-01
 9.752476362E-01 3.127227724E-01
 9.749679373E-01 3.128796816E-01
 9.746869194E-01 3.130519986E-01
 9.744045824E-01 3.132336140E-01
 9.741209263E-01 3.134149611E-01
 9.738359509E-01 3.135874271E-01
 9.735496562E-01 3.137483597E-01
 9.732620417E-01 3.138998449E-01
 9.729731071E-01 3.140493333E-01
 9.726828520E-01 3.142141998E-01
 9.723912760E-01 3.144044876E-01
 9.720984731E-01 3.146151006E-01
 9.718044126E-01 3.148221970E-01
 9.715090946E-01 3.150134683E-01
 9.712125190E-01 3.151852489E-01
 9.709146860E-01 3.153295815E-01
 9.706155953E-01 3.154424131E-01
 9.703152565E-01 3.154989481E-01
 9.700136944E-01 3.154953420E-01
 9.697109107E-01 3.154447675E-01
 9.694069053E-01 3.153631985E-01
 9.691016783E-01 3.152471781E-01
 9.687952295E-01 3.150806129E-01
 9.684875626E-01 3.148786128E-01
 9.681787049E-01 3.146578372E-01
 9.678686624E-01 3.144331276E-01
 9.675574351E-01 3.142142296E-01
 9.672450231E-01 3.139883280E-01
 9.669314263E-01 3.138101399E-01
 9.666166449E-01 3.136960864E-01
 9.663007024E-01 3.135451972E-01
 9.659836129E-01 3.132953644E-01
 9.656653765E-01 3.130161166E-01
 9.653459932E-01 3.128425181E-01
 9.650254630E-01 3.126566708E-01
 9.647037859E-01 3.125329912E-01
 9.643809747E-01 3.124430478E-01
 9.640570547E-01 3.123543859E-01
 9.637320267E-01 3.122452796E-01
 9.634058906E-01 3.121221960E-01
 9.630786465E-01 3.119970262E-01
 9.627502942E-01 3.118867874E-01
 9.624208385E-01 3.117974102E-01
 9.620903091E-01 3.117307127E-01
 9.617587114E-01 3.116809726E-01
 9.614260454E-01 3.116235733E-01
 9.610923111E-01 3.115561306E-01
 9.607575086E-01 3.114901781E-01
 9.604216380E-01 3.114389479E-01
 9.600847248E-01 3.113918900E-01
 9.597467838E-01 3.113211989E-01
 9.594078151E-01 3.109489381E-01
 9.590678189E-01 3.108353019E-01
 9.587267950E-01 3.110792637E-01
 9.583847434E-01 3.109997809E-01
 9.580416771E-01 3.107415736E-01
 9.576976235E-01 3.100297749E-01
 9.573525837E-01 3.094217777E-01
 9.570065578E-01 3.087649941E-01
 9.566595458E-01 3.079642355E-01
 9.563115476E-01 3.080057204E-01
 9.559625671E-01 3.075986207E-01
 9.556126358E-01 3.070557415E-01
 9.552617605E-01 3.062451184E-01
 9.549099413E-01 3.051831424E-01
 9.545571784E-01 3.042326868E-01
 9.542034715E-01 3.032326996E-01
 9.538488207E-01 3.015496731E-01
 9.534932504E-01 2.990314960E-01
 9.531367792E-01 2.965534329E-01
 9.527794071E-01 2.945950627E-01
 9.524211341E-01 2.926463187E-01
 9.520619604E-01 2.906660438E-01
 9.517018856E-01 2.884085774E-01
 9.513409252E-01 2.861011922E-01
 9.509791054E-01 2.837428451E-01
 9.506164263E-01 2.818509936E-01
 9.502528877E-01 2.809670269E-01
 9.498884897E-01 2.806261182E-01
 9.495232323E-01 2.803878784E-01
 9.491571353E-01 2.800719142E-01
 9.487902186E-01 2.792975903E-01
 9.484224822E-01 2.775312066E-01
 9.480539261E-01 2.749755085E-01
 9.476845503E-01 2.725680470E-01
 9.473143566E-01 2.706756592E-01
 9.469433735E-01 2.688718736E-01
 9.465716108E-01 2.671112418E-01
 9.461990687E-01 2.649933398E-01
 9.458257471E-01 2.629584074E-01
 9.454516459E-01 2.609182596E-01
 9.450767726E-01 2.584609389E-01
 9.447011572E-01 2.553820610E-01
 9.443248029E-01 2.516851425E-01
 9.439477098E-01 2.478217930E-01
 9.435698778E-01 2.442810237E-01
 9.431913068E-01 2.412276417E-01
 9.428120142E-01 2.382911444E-01
 9.424320235E-01 2.351378649E-01
 9.420513350E-01 2.321529388E-01
 9.416699486E-01 2.298020571E-01
 9.412878644E-01 2.278698385E-01
 9.409050835E-01 2.257470787E-01
 9.405216339E-01 2.231377214E-01
 9.401375279E-01 2.201285809E-01
 9.397527654E-01 2.170036733E-01
 9.393673465E-01 2.140101045E-01
 9.389812711E-01 2.111366838E-01
 9.385945459E-01 2.083077580E-01
 9.382072019E-01 2.055013776E-01
 9.378192431E-01 2.026424408E-01
 9.374306697E-01 1.995657831E-01
 9.370414816E-01 1.961070597E-01
 9.366516787E-01 1.923684925E-01
 9.362612781E-01 1.886381060E-01
 9.358703046E-01 1.850890815E-01
 9.354787583E-01 1.816777587E-01
 9.350866395E-01 1.783885509E-01
 9.346939479E-01 1.748084128E-01
 9.343006849E-01 1.710002124E-01
 9.339068796E-01 1.669304222E-01
 9.335125439E-01 1.627088040E-01
 9.331176778E-01 1.585765630E-01
 9.327222812E-01 1.547546238E-01
 9.323263542E-01 1.511753052E-01
 9.319299049E-01 1.477584988E-01
 9.315329645E-01 1.445538402E-01
 9.311355361E-01 1.415637732E-01
 9.307376197E-01 1.386970133E-01
 9.303392154E-01 1.358692199E-01
 9.299403230E-01 1.330930144E-01
 9.295410361E-01 1.303874552E-01
 9.291412903E-01 1.277421564E-01
 9.287410931E-01 1.251813322E-01
 9.283404522E-01 1.227466986E-01
 9.279393753E-01 1.204151809E-01
 9.275378699E-01 1.181147099E-01
 9.271359437E-01 1.158222705E-01
 9.267336044E-01 1.135802343E-01
 9.263308596E-01 1.114651635E-01
 9.259277170E-01 1.094733998E-01
 9.255241843E-01 1.075592339E-01
 9.251202690E-01 1.057159156E-01
 9.247159791E-01 1.040252969E-01
 9.243113220E-01 1.024901196E-01
 9.239063056E-01 1.010408103E-01
 9.235009375E-01 9.955701977E-02
 9.230952255E-01 9.794964641E-02
 9.226891772E-01 9.599738568E-02
 9.222828005E-01 9.379442036E-02
 9.218761030E-01 9.132342041E-02
 9.214699345E-01 8.826363087E-02
 9.210748161E-01 8.471194655E-02
 9.206902653E-01 8.053314686E-02
 9.203158265E-01 7.558455318E-02
 9.199510699E-01 6.781588495E-02
 9.195955888E-01 6.129957736E-02
 9.192489982E-01 5.431785807E-02
 9.189109342E-01 4.708628729E-02
 9.185810521E-01 3.882070258E-02
 9.182590249E-01 2.886286378E-02
 9.179445420E-01 1.752114110E-02
 9.176373096E-01 5.298358854E-03
 9.173370478E-01 -6.778975483E-03
 9.170434888E-01 -1.857635193E-02
 9.167563824E-01 -3.082724847E-02
 9.164754891E-01 -4.384143651E-02
 9.162005773E-01 -5.755000934E-02
 9.159314269E-01 -7.063139230E-02
 9.156678345E-01 -8.265260607E-02
 9.154096018E-01 -9.008563310E-02
 9.151565375E-01 -1.003843695E-01
 9.149084590E-01 -1.097009107E-01
 9.146651939E-01 -1.172604561E-01
 9.144265810E-01 -1.233306155E-01
 9.141924611E-01 -1.284562498E-01
 9.139626817E-01 -1.327978820E-01
 9.137370968E-01 -1.362138540E-01
 9.135155680E-01 -1.390018463E-01
 9.132979662E-01 -1.413391232E-01
 9.130841631E-01 -1.433306932E-01
 9.128740356E-01 -1.452074200E-01
 9.126674655E-01 -1.468881369E-01
 9.124643396E-01 -1.480715275E-01
 9.122645522E-01 -1.484054625E-01
 9.120680007E-01 -1.480380893E-01
 9.118745844E-01 -1.474130452E-01
 9.116842068E-01 -1.467438936E-01
 9.114967747E-01 -1.461731791E-01
 9.113121988E-01 -1.456539780E-01
 9.111303951E-01 -1.451550871E-01
 9.109512828E-01 -1.446768045E-01
 9.107747820E-01 -1.442222595E-01
 9.106008154E-01 -1.437946856E-01
 9.104293090E-01 -1.433980614E-01
 9.102601909E-01 -1.430493891E-01
 9.100933923E-01 -1.427572668E-01
 9.099288489E-01 -1.425159127E-01
 9.097664973E-01 -1.423086524E-01
 9.096062751E-01 -1.421232522E-01
 9.094481223E-01 -1.419501901E-01
 9.092919806E-01 -1.417845339E-01
 9.091377939E-01 -1.416227371E-01
 9.089855078E-01 -1.414641291E-01
 9.088350707E-01 -1.413089633E-01
 9.086864338E-01 -1.411589384E-01
 9.085395475E-01 -1.410157382E-01
 9.083943643E-01 -1.408812255E-01
 9.082508376E-01 -1.407564878E-01
 9.081089228E-01 -1.406421065E-01
 9.079685764E-01 -1.405376792E-01
 9.078297561E-01 -1.404423565E-01
 9.076924217E-01 -1.403547674E-01
 9.075565353E-01 -1.402735263E-01
 9.074220585E-01 -1.401974112E-01
 9.072889537E-01 -1.401254237E-01
 9.071571846E-01 -1.400569677E-01
 9.070267159E-01 -1.399914771E-01
 9.068975132E-01 -1.399287134E-01
 9.067695433E-01 -1.398680061E-01
 9.066427736E-01 -1.398090124E-01
 9.065171731E-01 -1.397503316E-01
 9.063927126E-01 -1.396916211E-01
 9.062693622E-01 -1.396308988E-01
 9.061470927E-01 -1.395688504E-01
 9.060258757E-01 -1.395045072E-01
 9.059056836E-01 -1.394422203E-01
 9.057864894E-01 -1.393840909E-01
 9.056682668E-01 -1.393377930E-01
 9.055509903E-01 -1.393049955E-01
 9.054346349E-01 -1.392878592E-01
ZONE T="LES remainder of airfoil surface"
 9.054348723E-01 -3.557958364E+00
 9.053185549E-01 -3.557975054E+00
 9.051908893E-01 -3.468457460E+00
 9.050508022E-01 -3.391574860E+00
 9.048971247E-01 -3.320095778E+00
 9.047285845E-01 -3.252246857E+00
 9.045437995E-01 -3.186999559E+00
 9.043412691E-01 -3.123685122E+00
 9.041193675E-01 -3.061912775E+00
 9.038763355E-01 -3.001329422E+00
 9.036102725E-01 -2.941690683E+00
 9.033191299E-01 -2.882767916E+00
 9.030007031E-01 -2.824345350E+00
 9.026526261E-01 -2.766236305E+00
 9.022723658E-01 -2.708212137E+00
 9.018572176E-01 -2.650071383E+00
 9.014043042E-01 -2.591592550E+00
 9.009105742E-01 -2.531793594E+00
 9.003727999E-01 -2.473654032E+00
 8.997875765E-01 -2.417947054E+00
 8.991513521E-01 -2.364161253E+00
 8.984604331E-01 -2.312047720E+00
 8.977110022E-01 -2.261369228E+00
 8.968991439E-01 -2.212026596E+00
 8.960208769E-01 -2.163889408E+00
 8.950721933E-01 -2.116919756E+00
 8.940491063E-01 -2.071060658E+00
 8.929477071E-01 -2.026297331E+00
 8.917642295E-01 -1.982640028E+00
 8.904951247E-01 -1.940089226E+00
 8.891371437E-01 -1.898751736E+00
 8.876874282E-01 -1.858643889E+00
 8.861436076E-01 -1.820023179E+00
 8.845039012E-01 -1.782786250E+00
 8.827672257E-01 -1.745964885E+00
 8.809332938E-01 -1.708953381E+00
 8.790027093E-01 -1.672499299E+00
 8.769770614E-01 -1.636722445E+00
 8.748590011E-01 -1.601957321E+00
 8.726523003E-01 -1.568101883E+00
 8.703618873E-01 -1.535660625E+00
 8.680714607E-01 -1.505460382E+00
 8.657810320E-01 -1.477145672E+00
 8.634906011E-01 -1.450856090E+00
 8.612001685E-01 -1.426240563E+00
 8.589097342E-01 -1.403003216E+00
 8.566192986E-01 -1.380840778E+00
 8.543288620E-01 -1.359607697E+00
 8.520384248E-01 -1.339378119E+00
 8.497479873E-01 -1.320200086E+00
 8.474575500E-01 -1.302094340E+00
 8.451671131E-01 -1.285205841E+00
 8.428766771E-01 -1.269611120E+00
 8.405862423E-01 -1.255138993E+00
 8.382958084E-01 -1.241222620E+00
 8.360053753E-01 -1.227450013E+00
 8.337149429E-01 -1.214033842E+00
 8.314245114E-01 -1.201438665E+00
 8.291340807E-01 -1.189443350E+00
 8.268436507E-01 -1.177613258E+00
 8.245532217E-01 -1.166029334E+00
 8.222627934E-01 -1.154822826E+00
 8.199723660E-01 -1.143938065E+00
 8.176819395E-01 -1.133430123E+00
 8.153915139E-01 -1.123345852E+00
 8.131010891E-01 -1.113637447E+00
 8.108106653E-01 -1.104258180E+00
 8.085202424E-01 -1.095175385E+00
 8.062298205E-01 -1.086461306E+00
 8.039393995E-01 -1.078145862E+00
 8.016489796E-01 -1.069935918E+00
 7.993585607E-01 -1.061712503E+00
 7.970681429E-01 -1.053861022E+00
 7.947777262E-01 -1.046321392E+00
 7.924873107E-01 -1.039145827E+00
 7.901968964E-01 -1.032483578E+00
 7.879064835E-01 -1.026240587E+00
 7.856160719E-01 -1.020355821E+00
 7.833256618E-01 -1.014463067E+00
 7.810352533E-01 -1.008465648E+00
 7.787448465E-01 -1.002458096E+00
 7.764977199E-01 -9.960536361E-01
 7.742505917E-01 -9.893441796E-01
 7.720034635E-01 -9.827798605E-01
 7.697563353E-01 -9.764698744E-01
 7.675092092E-01 -9.706705809E-01
 7.652620906E-01 -9.654712081E-01
 7.630149733E-01 -9.605284929E-01
 7.607678561E-01 -9.559083581E-01