title="sliced surface data"
variables="x","y","z","cp","cfx","cfy","cfz"
zone t="xslice 0.4000000E+02 loop 1", i=769, f=point,  solutiontime=  0.800000000000E+05, strandid=1
    0.400000000000000E+02   0.000000000000000E+00   0.500000000000000E+00   0.206630018381843E+00   0.186485930825563E-02   0.108299332855571E-08
  0.167086146952759E-05
    0.400000000000000E+02   0.000000000000000E+00   0.494964459495892E+00   0.206632015040831E+00   0.186541374945600E-02   0.107778989450419E-08
  0.332327836274988E-05
    0.400000000000000E+02   0.000000000000000E+00   0.489979610927082E+00   0.206637933648163E+00   0.186707749637651E-02   0.107308330945589E-08
  0.662961909299862E-05
    0.400000000000000E+02   0.000000000000000E+00   0.485044943986416E+00   0.206647724519761E+00   0.186984182438087E-02   0.107383706067084E-08
  0.990212285487669E-05
    0.400000000000000E+02   0.000000000000000E+00   0.480159953503923E+00   0.206661347609886E+00   0.187369834587644E-02   0.106961265034479E-08
  0.131301953670269E-04
    0.400000000000000E+02   0.000000000000000E+00   0.475324139395093E+00   0.206678732351745E+00   0.187862988840427E-02   0.105431138872404E-08
  0.162945733806864E-04
    0.400000000000000E+02   0.000000000000000E+00   0.470537006609685E+00   0.206699745175433E+00   0.188459962853250E-02   0.102495988511580E-08
  0.193687927960835E-04
    0.400000000000000E+02   0.000000000000000E+00   0.465798065081041E+00   0.206724166614624E+00   0.189154367177419E-02   0.980658330439805E-09
  0.223225260400430E-04
    0.400000000000000E+02   0.000000000000000E+00   0.461106829675924E+00   0.206751686534804E+00   0.189936903778897E-02   0.922921593384418E-09
  0.251257951788056E-04
    0.400000000000000E+02   0.000000000000000E+00   0.456462820144849E+00   0.206781916305396E+00   0.190795715008113E-02   0.855002340783822E-09
  0.277529884458113E-04
    0.400000000000000E+02   0.000000000000000E+00   0.451865561072925E+00   0.206814413791409E+00   0.191717147877895E-02   0.781056036309307E-09
  0.301857739370366E-04
    0.400000000000000E+02   0.000000000000000E+00   0.447314581831178E+00   0.206848714076412E+00   0.192686717470297E-02   0.705219036296425E-09
  0.324144642176025E-04
    0.400000000000000E+02   0.000000000000000E+00   0.442809416528380E+00   0.206884359153713E+00   0.193690052162635E-02   0.630930811940984E-09
  0.344378702364445E-04
    0.400000000000000E+02   0.000000000000000E+00   0.438349603963349E+00   0.206920921802098E+00   0.194713662996628E-02   0.560661525023837E-09
  0.362620384512621E-04
    0.400000000000000E+02   0.000000000000000E+00   0.433934687577739E+00   0.206958021473306E+00   0.195745463246482E-02   0.495900577949295E-09
  0.378984031731838E-04
    0.400000000000000E+02   0.000000000000000E+00   0.429564215409298E+00   0.206995332317975E+00   0.196775037912423E-02   0.437356144396471E-09
  0.393618360329438E-04
    0.400000000000000E+02   0.000000000000000E+00   0.425237740045602E+00   0.207032584819881E+00   0.197793708758545E-02   0.385161089495339E-09
  0.406689205828335E-04
    0.400000000000000E+02   0.000000000000000E+00   0.420954818578254E+00   0.207069562977787E+00   0.198794457351369E-02   0.339118443208740E-09
  0.418366097565627E-04
    0.400000000000000E+02   0.000000000000000E+00   0.416715012557540E+00   0.207106098907393E+00   0.199771765004942E-02   0.298795731272573E-09
  0.428812923288586E-04
    0.400000000000000E+02   0.000000000000000E+00   0.412517887947543E+00   0.207142066260500E+00   0.200721415502815E-02   0.263455605633769E-09
  0.438182171488546E-04
    0.400000000000000E+02   0.000000000000000E+00   0.408363015081715E+00   0.207177373462381E+00   0.201640291316470E-02   0.232596820213312E-09
  0.446611929506833E-04
    0.400000000000000E+02   0.000000000000000E+00   0.404249968618889E+00   0.207211957349086E+00   0.202526181331656E-02   0.205799453217168E-09
  0.454224820188641E-04
    0.400000000000000E+02   0.000000000000000E+00   0.400178327499732E+00   0.207245777473753E+00   0.203377609199650E-02   0.182531807233509E-09
  0.461128191866150E-04
    0.400000000000000E+02   0.000000000000000E+00   0.396147674903648E+00   0.207278811240752E+00   0.204193685522143E-02   0.162257685817295E-09
  0.467415044300564E-04
    0.400000000000000E+02   0.000000000000000E+00   0.392157598206102E+00   0.207311049832410E+00   0.204973983700550E-02   0.144546709393046E-09
  0.473165335172050E-04
    0.400000000000000E+02   0.000000000000000E+00   0.388207688936380E+00   0.207342494869810E+00   0.205718437533101E-02   0.129055960158914E-09
  0.478447434421453E-04
    0.400000000000000E+02   0.000000000000000E+00   0.384297542735773E+00   0.207373155722308E+00   0.206427257950760E-02   0.115454510118745E-09
  0.483319582303379E-04
    0.400000000000000E+02   0.000000000000000E+00   0.380426759316186E+00   0.207403047379264E+00   0.207100866045584E-02   0.103458128024520E-09
  0.487831265071627E-04
    0.400000000000000E+02   0.000000000000000E+00   0.376594942419153E+00   0.207432188758250E+00   0.207739839607836E-02   0.928144406045018E-10
  0.492024466940547E-04
    0.400000000000000E+02   0.000000000000000E+00   0.372801699775276E+00   0.207460601413113E+00   0.208344870751456E-02   0.833234782050267E-10
  0.495934786323785E-04
    0.400000000000000E+02   0.000000000000000E+00   0.369046643064069E+00   0.207488308515893E+00   0.208916732631465E-02   0.748101873656430E-10
  0.499592414594861E-04
    0.400000000000000E+02   0.000000000000000E+00   0.365329387874199E+00   0.207515334110755E+00   0.209456253472375E-02   0.671237514052550E-10
  0.503022980126316E-04
    0.400000000000000E+02   0.000000000000000E+00   0.361649553664141E+00   0.207541702522423E+00   0.209964296374226E-02   0.601420586189824E-10
  0.506248270082206E-04
    0.400000000000000E+02   0.000000000000000E+00   0.358006763723213E+00   0.207567437957506E+00   0.210441743755613E-02   0.537574250828703E-10
  0.509286844731728E-04
    0.400000000000000E+02   0.000000000000000E+00   0.354400645133019E+00   0.207592564179066E+00   0.210889485440963E-02   0.478822468634479E-10
  0.512154557746749E-04
    0.400000000000000E+02   0.000000000000000E+00   0.350830828729268E+00   0.207617104307292E+00   0.211308409630155E-02   0.424391429660981E-10
  0.514864996740477E-04
    0.400000000000000E+02   0.000000000000000E+00   0.347296949063983E+00   0.207641080662857E+00   0.211699396183574E-02   0.373564945151896E-10
  0.517429853590928E-04
    0.400000000000000E+02   0.000000000000000E+00   0.343798644368093E+00   0.207664514690540E+00   0.212063311676937E-02   0.325885438985177E-10
  0.519859233740709E-04
    0.400000000000000E+02   0.000000000000000E+00   0.340335556514391E+00   0.207687426893476E+00   0.212401005793619E-02   0.280907672897034E-10
  0.522161915341602E-04
    0.400000000000000E+02   0.000000000000000E+00   0.336907330980879E+00   0.207709836824538E+00   0.212713308806317E-02   0.238166237523074E-10
  0.524345567029405E-04
    0.400000000000000E+02   0.000000000000000E+00   0.333513616814471E+00   0.207731763075719E+00   0.213001029902625E-02   0.197341729616329E-10
  0.526416930203828E-04
    0.400000000000000E+02   0.000000000000000E+00   0.330154066595066E+00   0.207753223310914E+00   0.213264956153092E-02   0.158211549650120E-10
  0.528381972166259E-04
    0.400000000000000E+02   0.000000000000000E+00   0.326828336399983E+00   0.207774234277123E+00   0.213505851971825E-02   0.120672003005903E-10
  0.530246011973685E-04
    0.400000000000000E+02   0.000000000000000E+00   0.323536085768754E+00   0.207794811860219E+00   0.213724458898418E-02   0.845314193535400E-11
  0.532013823518823E-04
    0.400000000000000E+02   0.000000000000000E+00   0.320276977668265E+00   0.207814971103119E+00   0.213921495652252E-02   0.494470860223688E-11
  0.533689722885309E-04
    0.400000000000000E+02   0.000000000000000E+00   0.317050678458262E+00   0.207834726275198E+00   0.214097658394874E-02   0.153389404743613E-11
  0.535277641941043E-04
    0.400000000000000E+02   0.000000000000000E+00   0.313856857857187E+00   0.207854090888613E+00   0.214253621155480E-02  -0.179120083452999E-11
  0.536781191479144E-04
    0.400000000000000E+02   0.000000000000000E+00   0.310695188908374E+00   0.207873077773424E+00   0.214390036390035E-02  -0.503468884292468E-11
  0.538203711537740E-04
    0.400000000000000E+02   0.000000000000000E+00   0.307565347946573E+00   0.207891699095040E+00   0.214507535569864E-02  -0.819883031215742E-11
  0.539548308900104E-04
    0.400000000000000E+02   0.000000000000000E+00   0.304467014564817E+00   0.207909966421104E+00   0.214606729773058E-02  -0.112991530696195E-10
  0.540817890422341E-04
    0.400000000000000E+02   0.000000000000000E+00   0.301399871581621E+00   0.207927890734133E+00   0.214688210337079E-02  -0.143369139184170E-10
  0.542015195749328E-04
    0.400000000000000E+02   0.000000000000000E+00   0.298363605008516E+00   0.207945482499540E+00   0.214752549585405E-02  -0.173300685547403E-10
  0.543142822734298E-04
    0.400000000000000E+02   0.000000000000000E+00   0.295357904017898E+00   0.207962751680977E+00   0.214800301434708E-02  -0.202589231921748E-10
  0.544203242475738E-04
    0.400000000000000E+02   0.000000000000000E+00   0.292382460911214E+00   0.207979707786589E+00   0.214832001830631E-02  -0.227328270429894E-10
  0.545198818733249E-04
    0.400000000000000E+02   0.000000000000000E+00   0.289436971087459E+00   0.207996359889930E+00   0.214848169279730E-02  -0.252836357576630E-10
  0.546131828750563E-04
    0.400000000000000E+02   0.000000000000000E+00   0.286521133011996E+00   0.208012716675499E+00   0.214849305538828E-02  -0.281712252510391E-10
  0.547004466583731E-04
    0.400000000000000E+02   0.000000000000000E+00   0.283634648185686E+00   0.208028786481179E+00   0.214835896372856E-02  -0.309421651562176E-10
  0.547818837504935E-04
    0.400000000000000E+02   0.000000000000000E+00   0.280777221114331E+00   0.208044577284664E+00   0.214808412235529E-02  -0.336396098249631E-10
  0.548576956747680E-04
    0.400000000000000E+02   0.000000000000000E+00   0.277948559278421E+00   0.208060096751726E+00   0.214767308763829E-02  -0.362574079365684E-10
  0.549280760168189E-04
    0.400000000000000E+02   0.000000000000000E+00   0.275148373103192E+00   0.208075352221711E+00   0.214713027275370E-02  -0.388360366365386E-10
  0.549932121823162E-04
    0.400000000000000E+02   0.000000000000000E+00   0.272376375928981E+00   0.208090350771724E+00   0.214645995304673E-02  -0.413661280656570E-10
  0.550532863621632E-04
    0.400000000000000E+02   0.000000000000000E+00   0.269632283981878E+00   0.208105099193287E+00   0.214566627106307E-02  -0.438442372140748E-10
  0.551084756654273E-04
    0.400000000000000E+02   0.000000000000000E+00   0.266915816344678E+00   0.208119604060049E+00   0.214475324058663E-02  -0.462804763859300E-10
  0.551589517884552E-04
    0.400000000000000E+02   0.000000000000000E+00   0.264226694928120E+00   0.208133871682753E+00   0.214372475013093E-02  -0.486755956408006E-10
  0.552048811973860E-04
    0.400000000000000E+02   0.000000000000000E+00   0.261564644442424E+00   0.208147908183311E+00   0.214258456723688E-02  -0.510271358649542E-10
  0.552464255406868E-04
    0.400000000000000E+02   0.000000000000000E+00   0.258929392369102E+00   0.208161719449811E+00   0.214133634234456E-02  -0.533351402248666E-10
  0.552837414545489E-04
    0.400000000000000E+02   0.000000000000000E+00   0.256320668933066E+00   0.208175311206761E+00   0.213998361223305E-02  -0.555975726918732E-10
  0.553169805938676E-04
    0.400000000000000E+02   0.000000000000000E+00   0.253738207075008E+00   0.208188688965413E+00   0.213852980352552E-02  -0.578163336032293E-10
  0.553462898076654E-04
    0.400000000000000E+02   0.000000000000000E+00   0.251181742424061E+00   0.208201858093027E+00   0.213697823588634E-02  -0.599991368137430E-10
  0.553718110918340E-04
    0.400000000000000E+02   0.000000000000000E+00   0.248651013270732E+00   0.208214823759863E+00   0.213533212521887E-02  -0.621430970980680E-10
  0.553936816727338E-04
    0.400000000000000E+02   0.000000000000000E+00   0.246145760540118E+00   0.208227591008369E+00   0.213359458679097E-02  -0.642492919833218E-10
  0.554120341045597E-04
    0.400000000000000E+02   0.000000000000000E+00   0.243665727765376E+00   0.208240164702717E+00   0.213176863813979E-02  -0.663203348177161E-10
  0.554269962539810E-04
    0.400000000000000E+02   0.000000000000000E+00   0.241210661061472E+00   0.208252549589220E+00   0.212985720193201E-02  -0.683481095249512E-10
  0.554386915211398E-04
    0.400000000000000E+02   0.000000000000000E+00   0.238780309099190E+00   0.208264750246336E+00   0.212786310889534E-02  -0.703389420176335E-10
  0.554472388526673E-04
    0.400000000000000E+02   0.000000000000000E+00   0.236374423079403E+00   0.208276771157065E+00   0.212578910022057E-02  -0.723027987614967E-10
  0.554527524831336E-04
    0.400000000000000E+02   0.000000000000000E+00   0.233992756707602E+00   0.208288616635273E+00   0.212363782988298E-02  -0.742339096609046E-10
  0.554553421910573E-04
    0.400000000000000E+02   0.000000000000000E+00   0.231635066168683E+00   0.208300290906984E+00   0.212141186747421E-02  -0.761276805004311E-10
  0.554551136895814E-04
    0.400000000000000E+02   0.000000000000000E+00   0.229301110101990E+00   0.208311798051641E+00   0.211911370084155E-02  -0.779885740723523E-10
  0.554521684284803E-04
    0.400000000000000E+02   0.000000000000000E+00   0.226990649576601E+00   0.208323142058710E+00   0.211674573798504E-02  -0.798239098471890E-10
  0.554466033318463E-04
    0.400000000000000E+02   0.000000000000000E+00   0.224703448066871E+00   0.208334326782750E+00   0.211431030908587E-02  -0.816291920526326E-10
  0.554385112847784E-04
    0.400000000000000E+02   0.000000000000000E+00   0.222439271428222E+00   0.208345355986009E+00   0.211180966918651E-02  -0.833991065039108E-10
  0.554279814219891E-04
    0.400000000000000E+02   0.000000000000000E+00   0.220197887873167E+00   0.208356233314976E+00   0.210924600023969E-02  -0.851459071172953E-10
  0.554150987907628E-04
    0.400000000000000E+02   0.000000000000000E+00   0.217979067947586E+00   0.208366962329519E+00   0.210662141300313E-02  -0.868752249920256E-10
  0.553999445235195E-04
    0.400000000000000E+02   0.000000000000000E+00   0.215782584507232E+00   0.208377546468150E+00   0.210393794933916E-02  -0.885842353796217E-10
  0.553825960623800E-04
    0.400000000000000E+02   0.000000000000000E+00   0.213608212694485E+00   0.208387989098280E+00   0.210119758397271E-02  -0.902695599187243E-10
  0.553631271667987E-04
    0.400000000000000E+02   0.000000000000000E+00   0.211455729915326E+00   0.208398293463355E+00   0.209840222640356E-02  -0.919350073977512E-10
  0.553416081343194E-04
    0.400000000000000E+02   0.000000000000000E+00   0.209324915816553E+00   0.208408462749154E+00   0.209555372298261E-02  -0.935779770848328E-10
  0.553181059120370E-04
    0.400000000000000E+02   0.000000000000000E+00   0.207215552263222E+00   0.208418500015703E+00   0.209265385872988E-02  -0.952084806915193E-10
  0.552926841420025E-04
    0.400000000000000E+02   0.000000000000000E+00   0.205127423316318E+00   0.208428408272142E+00   0.208970435913765E-02  -0.968396287066057E-10
  0.552654031602719E-04
    0.400000000000000E+02   0.000000000000000E+00   0.203060315210645E+00   0.208438190408204E+00   0.208670689172305E-02  -0.984536309244498E-10
  0.552363201973281E-04
    0.400000000000000E+02   0.000000000000000E+00   0.201014016332947E+00   0.208447849258797E+00   0.208366306788494E-02  -0.100042709160844E-09
  0.552054896697492E-04
    0.400000000000000E+02   0.000000000000000E+00   0.198988317200244E+00   0.208457387555623E+00   0.208057444483833E-02  -0.101620142000413E-09
  0.551729632315881E-04
    0.400000000000000E+02   0.000000000000000E+00   0.196983010438383E+00   0.208466807967819E+00   0.207744252719471E-02  -0.102738427175115E-09
  0.551387898078263E-04
    0.400000000000000E+02   0.000000000000000E+00   0.194997890760813E+00   0.208476113087058E+00   0.207426876850592E-02  -0.103872654555475E-09
  0.551030154961502E-04
    0.400000000000000E+02   0.000000000000000E+00   0.193032754947569E+00   0.208485305405988E+00   0.207105457258457E-02  -0.105536103216651E-09
  0.550656838234726E-04
    0.400000000000000E+02   0.000000000000000E+00   0.191087401824464E+00   0.208494387371454E+00   0.206780129515434E-02  -0.106979039820259E-09
  0.550268361940931E-04
    0.400000000000000E+02   0.000000000000000E+00   0.189161632242501E+00   0.208503361350324E+00   0.206451024564857E-02  -0.108499765512069E-09
  0.549865118117864E-04
    0.400000000000000E+02   0.000000000000000E+00   0.187255249057481E+00   0.208512229624937E+00   0.206118268867738E-02  -0.110047709219040E-09
  0.549447476605038E-04
    0.400000000000000E+02   0.000000000000000E+00   0.185368057109821E+00   0.208520994438738E+00   0.205781984531831E-02  -0.111588503429235E-09
  0.549015786057229E-04
    0.400000000000000E+02   0.000000000000000E+00   0.183499863204578E+00   0.208529657932879E+00   0.205442289444092E-02  -0.113164727147966E-09
  0.548570375806445E-04
    0.400000000000000E+02   0.000000000000000E+00   0.181650476091670E+00   0.208538222219716E+00   0.205099297423884E-02  -0.114417412157869E-09
  0.548111558068296E-04
    0.400000000000000E+02   0.000000000000000E+00   0.179819706446296E+00   0.208546689316007E+00   0.204753118379275E-02  -0.115773341258884E-09
  0.547639628725732E-04
    0.400000000000000E+02   0.000000000000000E+00   0.178007366849557E+00   0.208555061192133E+00   0.204403858429262E-02  -0.117590454211128E-09
  0.547154866355261E-04
    0.400000000000000E+02   0.000000000000000E+00   0.176213271769268E+00   0.208563339766255E+00   0.204051619994788E-02  -0.119771886475765E-09
  0.546657532342011E-04
    0.400000000000000E+02   0.000000000000000E+00   0.174437237540964E+00   0.208571526892231E+00   0.203696501930964E-02  -0.121544968983031E-09
  0.546147875631506E-04
    0.400000000000000E+02   0.000000000000000E+00   0.172679082349102E+00   0.208579624354966E+00   0.203338599693109E-02  -0.123119080329607E-09
  0.545626134179248E-04
    0.400000000000000E+02   0.000000000000000E+00   0.170938626208443E+00   0.208587633905323E+00   0.202978005458345E-02  -0.124484877633401E-09
  0.545092530931872E-04
    0.400000000000000E+02   0.000000000000000E+00   0.169215690945629E+00   0.208595557221012E+00   0.202614808193620E-02  -0.125555278578847E-09
  0.544547275805157E-04
    0.400000000000000E+02   0.000000000000000E+00   0.167510100180943E+00   0.208603395942756E+00   0.202249093756821E-02  -0.126908623591642E-09
  0.543990567844238E-04
    0.400000000000000E+02   0.000000000000000E+00   0.165821679310255E+00   0.208611151661027E+00   0.201880945030033E-02  -0.128487267015438E-09
  0.543422597070561E-04
    0.400000000000000E+02   0.000000000000000E+00   0.164150255487143E+00   0.208618825874731E+00   0.201510442090365E-02  -0.130266438333221E-09
  0.542843549871136E-04
    0.400000000000000E+02   0.000000000000000E+00   0.162495657605201E+00   0.208626420120873E+00   0.201137662310048E-02  -0.132024998412283E-09
  0.542253601314208E-04
    0.400000000000000E+02   0.000000000000000E+00   0.160857716280523E+00   0.208633935805542E+00   0.200762680355981E-02  -0.133615116367250E-09
  0.541652912253121E-04
    0.400000000000000E+02   0.000000000000000E+00   0.159236263834362E+00   0.208641374345527E+00   0.200385568307841E-02  -0.135643929381311E-09
  0.541041639617260E-04
    0.400000000000000E+02   0.000000000000000E+00   0.157631134275964E+00   0.208648737082081E+00   0.200006395824919E-02  -0.137834255261751E-09
  0.540419936899260E-04
    0.400000000000000E+02   0.000000000000000E+00   0.156042163285577E+00   0.208656025342095E+00   0.199625230207980E-02  -0.139750013172393E-09
  0.539787948704769E-04
    0.400000000000000E+02   0.000000000000000E+00   0.154469188197627E+00   0.208663240381913E+00   0.199242136449301E-02  -0.141761635135796E-09
  0.539145812527750E-04
    0.400000000000000E+02   0.000000000000000E+00   0.152912047984068E+00   0.208670383443804E+00   0.198857177349799E-02  -0.143658138145757E-09
  0.538493663382821E-04
    0.400000000000000E+02   0.000000000000000E+00   0.151370583237895E+00   0.208677455719068E+00   0.198470413628999E-02  -0.145340032804169E-09
  0.537831632046117E-04
    0.400000000000000E+02   0.000000000000000E+00   0.149844636156826E+00   0.208684458366593E+00   0.198081903989054E-02  -0.147044701540371E-09
  0.537159844273881E-04
    0.400000000000000E+02   0.000000000000000E+00   0.148334050527150E+00   0.208691392507359E+00   0.197691705174870E-02  -0.148762827935422E-09
  0.536478422458439E-04
    0.400000000000000E+02   0.000000000000000E+00   0.146838671707732E+00   0.208698259231357E+00   0.197299872052535E-02  -0.150538499167060E-09
  0.535787485195218E-04
    0.400000000000000E+02   0.000000000000000E+00   0.145358346614181E+00   0.208705059596004E+00   0.196906457695459E-02  -0.152313177129701E-09
  0.535087148442740E-04
    0.400000000000000E+02   0.000000000000000E+00   0.143892923703185E+00   0.208711794619247E+00   0.196511513471405E-02  -0.154022959850297E-09
  0.534377526906922E-04
    0.400000000000000E+02   0.000000000000000E+00   0.142442252956989E+00   0.208718465304644E+00   0.196115089094351E-02  -0.155773936233303E-09
  0.533658731622138E-04
    0.400000000000000E+02   0.000000000000000E+00   0.141006185868044E+00   0.208725072607766E+00   0.195717232657871E-02  -0.157572091147645E-09
  0.532930869507900E-04
    0.400000000000000E+02   0.000000000000000E+00   0.139584575423799E+00   0.208731617469831E+00   0.195317990715788E-02  -0.159376510011585E-09
  0.532194047560610E-04
    0.400000000000000E+02   0.000000000000000E+00   0.138177276091657E+00   0.208738100794244E+00   0.194917408390345E-02  -0.161161748291588E-09
  0.531448374358886E-04
    0.400000000000000E+02   0.000000000000000E+00   0.136784143804069E+00   0.208744523466499E+00   0.194515529431704E-02  -0.162935168368221E-09
  0.530693956096210E-04
    0.400000000000000E+02   0.000000000000000E+00   0.135405035943792E+00   0.208750886344870E+00   0.194112396202681E-02  -0.164807394512305E-09
  0.529930893221614E-04
    0.400000000000000E+02   0.000000000000000E+00   0.134039811329286E+00   0.208757190262396E+00   0.193708049729379E-02  -0.166741012381782E-09
  0.529159285806440E-04
    0.400000000000000E+02   0.000000000000000E+00   0.132688330200263E+00   0.208763436022914E+00   0.193302529831861E-02  -0.168644974494684E-09
  0.528379238403111E-04
    0.400000000000000E+02   0.000000000000000E+00   0.131350454203377E+00   0.208769624413346E+00   0.192895875182731E-02  -0.170494737481709E-09
  0.527590854798506E-04
    0.400000000000000E+02   0.000000000000000E+00   0.130026046378062E+00   0.208775756200999E+00   0.192488123289136E-02  -0.172305653045553E-09
  0.526794232916769E-04
    0.400000000000000E+02   0.000000000000000E+00   0.128714971142509E+00   0.208781832134659E+00   0.192079310515120E-02  -0.174212748375317E-09
  0.525989470974563E-04
    0.400000000000000E+02   0.000000000000000E+00   0.127417094279792E+00   0.208787852926115E+00   0.191669472174295E-02  -0.176197174663660E-09
  0.525176671041959E-04
    0.400000000000000E+02   0.000000000000000E+00   0.126132282924122E+00   0.208793819293162E+00   0.191258642603082E-02  -0.178147734600723E-09
  0.524355933294657E-04
    0.400000000000000E+02   0.000000000000000E+00   0.124860405547246E+00   0.208799731910467E+00   0.190846855190291E-02  -0.180069747962250E-09
  0.523527357850576E-04
    0.400000000000000E+02   0.000000000000000E+00   0.123601331944987E+00   0.208805591452438E+00   0.190434142403907E-02  -0.182048080002765E-09
  0.522691046741229E-04
    0.400000000000000E+02   0.000000000000000E+00   0.122354933223908E+00   0.208811398575306E+00   0.190020535819081E-02  -0.184103714340524E-09
  0.521847099006578E-04
    0.400000000000000E+02   0.000000000000000E+00   0.121121081788123E+00   0.208817153908727E+00   0.189606066135901E-02  -0.186160282000988E-09
  0.520995611451047E-04
    0.400000000000000E+02   0.000000000000000E+00   0.119899651326232E+00   0.208822858071797E+00   0.189190763213493E-02  -0.188178561845188E-09
  0.520136684082805E-04
    0.400000000000000E+02   0.000000000000000E+00   0.118690516798389E+00   0.208828511671540E+00   0.188774656145870E-02  -0.190201281214666E-09
  0.519270419820119E-04
    0.400000000000000E+02   0.000000000000000E+00   0.117493554423503E+00   0.208834115299782E+00   0.188357773303208E-02  -0.192278901748644E-09
  0.518396919388216E-04
    0.400000000000000E+02   0.000000000000000E+00   0.116308641666569E+00   0.208839669532610E+00   0.187940142332094E-02  -0.194391112211751E-09
  0.517516283230149E-04
    0.400000000000000E+02   0.000000000000000E+00   0.115135657226119E+00   0.208845174934987E+00   0.187521790189908E-02  -0.196516006034785E-09
  0.516628612450654E-04
    0.400000000000000E+02   0.000000000000000E+00   0.113974481021805E+00   0.208850632057789E+00   0.187102743170326E-02  -0.198657531854315E-09
  0.515734006221931E-04
    0.400000000000000E+02   0.000000000000000E+00   0.112824994182111E+00   0.208856041439400E+00   0.186683026911301E-02  -0.200797291054820E-09
  0.514832564725597E-04
    0.400000000000000E+02   0.000000000000000E+00   0.111687079032179E+00   0.208861403606123E+00   0.186262666436377E-02  -0.202953505499165E-09
  0.513924390857660E-04
    0.400000000000000E+02   0.000000000000000E+00   0.110560619081763E+00   0.208866719076822E+00   0.185841686211615E-02  -0.205123458242461E-09
  0.513009588227816E-04
    0.400000000000000E+02   0.000000000000000E+00   0.109445499013304E+00   0.208871988358995E+00   0.185420110146116E-02  -0.207420656358101E-09
  0.512088256926828E-04
    0.400000000000000E+02   0.000000000000000E+00   0.108341604670129E+00   0.208877211949238E+00   0.184997961586593E-02  -0.209802130878438E-09
  0.511160497353593E-04
    0.400000000000000E+02   0.000000000000000E+00   0.107248823044758E+00   0.208882390328257E+00   0.184575263365818E-02  -0.211280775183555E-09
  0.510226412552514E-04
    0.400000000000000E+02   0.000000000000000E+00   0.106167042267338E+00   0.208887523992135E+00   0.184152037825694E-02  -0.212072092441364E-09
  0.509286103458014E-04
    0.400000000000000E+02   0.000000000000000E+00   0.105096151594192E+00   0.208892613377404E+00   0.183728306833064E-02  -0.213998984009756E-09
  0.508339672373882E-04
    0.400000000000000E+02   0.000000000000000E+00   0.104036041396481E+00   0.208897658972701E+00   0.183304091804442E-02  -0.216566266021545E-09
  0.507387222655790E-04
    0.400000000000000E+02   0.000000000000000E+00   0.102986603148981E+00   0.208902661212578E+00   0.182879413714544E-02  -0.218681865475360E-09
  0.506428856287032E-04
    0.400000000000000E+02   0.000000000000000E+00   0.101947729418972E+00   0.208907620549882E+00   0.182454293118399E-02  -0.220929754120386E-09
  0.505464675368988E-04
    0.400000000000000E+02   0.000000000000000E+00   0.100919313855241E+00   0.208912537420730E+00   0.182028750162482E-02  -0.223505338945484E-09
  0.504494780200521E-04
    0.400000000000000E+02   0.000000000000000E+00   0.999012511771970E-01   0.208917412251954E+00   0.181602804581957E-02  -0.225849696916233E-09
  0.503519269419927E-04
    0.400000000000000E+02   0.000000000000000E+00   0.988934371640884E-01   0.208922245481073E+00   0.181176475717903E-02  -0.227961763442423E-09
  0.502538243654842E-04
    0.400000000000000E+02   0.000000000000000E+00   0.978957686443375E-01   0.208927037500298E+00   0.180749782559545E-02  -0.230406889323269E-09
  0.501551805457050E-04
    0.400000000000000E+02   0.000000000000000E+00   0.969081434849771E-01   0.208931788727932E+00   0.180322743762634E-02  -0.233048077327636E-09
  0.500560055173908E-04
    0.400000000000000E+02   0.000000000000000E+00   0.959304605811955E-01   0.208936499585723E+00   0.179895377640473E-02  -0.235467428261562E-09
  0.499563092203419E-04
    0.400000000000000E+02   0.000000000000000E+00   0.949626198459858E-01   0.208941170445311E+00   0.179467702185815E-02  -0.237904568376714E-09
  0.498561017124954E-04
    0.400000000000000E+02   0.000000000000000E+00   0.940045221999003E-01   0.208945801728521E+00   0.179039735081785E-02  -0.240355684899921E-09
  0.497553928784216E-04
    0.400000000000000E+02   0.000000000000000E+00   0.930560695609073E-01   0.208950393797295E+00   0.178611493686907E-02  -0.242823986612698E-09
  0.496541923034753E-04
    0.400000000000000E+02   0.000000000000000E+00   0.921171648343504E-01   0.208954947059416E+00   0.178182995045925E-02  -0.245318125769595E-09
  0.495525095584684E-04
    0.400000000000000E+02   0.000000000000000E+00   0.911877119030085E-01   0.208959461865770E+00   0.177754255929443E-02  -0.247835514016223E-09
  0.494503543738017E-04
    0.400000000000000E+02   0.000000000000000E+00   0.902676156172565E-01   0.208963938618044E+00   0.177325292851672E-02  -0.250091709118051E-09
  0.493477364840268E-04
    0.400000000000000E+02   0.000000000000000E+00   0.893567817853244E-01   0.208968377659375E+00   0.176896122064399E-02  -0.253014987742638E-09
  0.492446653697578E-04
    0.400000000000000E+02   0.000000000000000E+00   0.884551171636549E-01   0.208972779371478E+00   0.176466759544427E-02  -0.256663770483621E-09
  0.491411501925723E-04
    0.400000000000000E+02   0.000000000000000E+00   0.875625294473579E-01   0.208977144113018E+00   0.176037220995359E-02  -0.258658331034192E-09
  0.490372000540873E-04
    0.400000000000000E+02   0.000000000000000E+00   0.866789272607608E-01   0.208981472247186E+00   0.175607521877344E-02  -0.259748932228780E-09
  0.489328240543361E-04
    0.400000000000000E+02   0.000000000000000E+00   0.858042201480547E-01   0.208985764115240E+00   0.175177677417358E-02  -0.262148343555044E-09
  0.488280311897249E-04