title="sliced surface data"
variables="x","y","z","cp","cfx","cfy","cfz"
zone t="xslice 0.4000000E+02 loop 1", i=385, f=point,  solutiontime=  0.780160000000E+05, strandid=1
    0.400000000000000E+02   0.000000000000000E+00   0.500000000000000E+00   0.206781522350941E+00   0.186042693961310E-02   0.233021559383236E-08
  0.356320965328261E-05
    0.400000000000000E+02   0.000000000000000E+00   0.489979610927082E+00   0.206790703413976E+00   0.186297119664675E-02   0.228624725669329E-08
  0.701328547372728E-05
    0.400000000000000E+02   0.000000000000000E+00   0.480159953503923E+00   0.206817198333128E+00   0.187049211942838E-02   0.219101345884582E-08
  0.138083511103857E-04
    0.400000000000000E+02   0.000000000000000E+00   0.470537006609685E+00   0.206859523720063E+00   0.188253268843349E-02   0.203431439011118E-08
  0.201607726654983E-04
    0.400000000000000E+02   0.000000000000000E+00   0.461106829675924E+00   0.206915275917082E+00   0.189836779416176E-02   0.177456465459356E-08
  0.258968516292863E-04
    0.400000000000000E+02   0.000000000000000E+00   0.451865561072925E+00   0.206981136589570E+00   0.191702341036271E-02   0.145251909822104E-08
  0.308788233319767E-04
    0.400000000000000E+02   0.000000000000000E+00   0.442809416528380E+00   0.207053379566566E+00   0.193739811993023E-02   0.113257970614000E-08
  0.350490348832892E-04
    0.400000000000000E+02   0.000000000000000E+00   0.433934687577739E+00   0.207128563033847E+00   0.195844217231943E-02   0.860696626967190E-09
  0.384400377744457E-04
    0.400000000000000E+02   0.000000000000000E+00   0.425237740045602E+00   0.207203995253905E+00   0.197929849345121E-02   0.651361794957226E-09
  0.411506299062538E-04
    0.400000000000000E+02   0.000000000000000E+00   0.416715012557540E+00   0.207277857468409E+00   0.199935803741988E-02   0.497643409121014E-09
  0.433082955127785E-04
    0.400000000000000E+02   0.000000000000000E+00   0.408363015081715E+00   0.207349083679878E+00   0.201824182858975E-02   0.385585633372486E-09
  0.450379588655124E-04
    0.400000000000000E+02   0.000000000000000E+00   0.400178327499732E+00   0.207417152742641E+00   0.203574766428900E-02   0.302675991859354E-09
  0.464450705877756E-04
    0.400000000000000E+02   0.000000000000000E+00   0.392157598206102E+00   0.207481893381910E+00   0.205179317863920E-02   0.239927762494561E-09
  0.476110541941981E-04
    0.400000000000000E+02   0.000000000000000E+00   0.384297542735773E+00   0.207543339095058E+00   0.206637038071837E-02   0.191316119854287E-09
  0.485956347082087E-04
    0.400000000000000E+02   0.000000000000000E+00   0.376594942419153E+00   0.207601632677543E+00   0.207951436236190E-02   0.152764142477416E-09
  0.494415086840678E-04
    0.400000000000000E+02   0.000000000000000E+00   0.369046643064069E+00   0.207656967899376E+00   0.209128347240764E-02   0.121602930292558E-09
  0.501789280414115E-04
    0.400000000000000E+02   0.000000000000000E+00   0.361649553664141E+00   0.207709555595575E+00   0.210174731789352E-02   0.957049980766625E-10
  0.508293572942309E-04
    0.400000000000000E+02   0.000000000000000E+00   0.354400645133019E+00   0.207759604957697E+00   0.211097970048128E-02   0.735805470816995E-10
  0.514081450450037E-04
    0.400000000000000E+02   0.000000000000000E+00   0.347296949063983E+00   0.207807313808337E+00   0.211905456325803E-02   0.543913370581820E-10
  0.519264045070530E-04
    0.400000000000000E+02   0.000000000000000E+00   0.340335556514391E+00   0.207852864304882E+00   0.212604375130443E-02   0.373240839984585E-10
  0.523923194870313E-04
    0.400000000000000E+02   0.000000000000000E+00   0.333513616814471E+00   0.207896421555225E+00   0.213201585689641E-02   0.217168580003996E-10
  0.528120475372457E-04
    0.400000000000000E+02   0.000000000000000E+00   0.326828336399983E+00   0.207938134013593E+00   0.213703570483089E-02   0.740622468603418E-11
  0.531903434279675E-04
    0.400000000000000E+02   0.000000000000000E+00   0.320276977668265E+00   0.207978134569195E+00   0.214116420671729E-02  -0.615168141771994E-11
  0.535309888131275E-04
    0.400000000000000E+02   0.000000000000000E+00   0.313856857857187E+00   0.208016542148856E+00   0.214445842112992E-02  -0.191975723801274E-10
  0.538370875499549E-04
    0.400000000000000E+02   0.000000000000000E+00   0.307565347946573E+00   0.208053463275545E+00   0.214697172250491E-02  -0.316238570700133E-10
  0.541112678649727E-04
    0.400000000000000E+02   0.000000000000000E+00   0.301399871581621E+00   0.208088993655845E+00   0.214875402135525E-02  -0.435241382416907E-10
  0.543558199084307E-04
    0.400000000000000E+02   0.000000000000000E+00   0.295357904017898E+00   0.208123219612285E+00   0.214985199500455E-02  -0.549066462518631E-10
  0.545727894826520E-04
    0.400000000000000E+02   0.000000000000000E+00   0.289436971087459E+00   0.208156219278618E+00   0.215030929826611E-02  -0.658846458421846E-10
  0.547640428547783E-04
    0.400000000000000E+02   0.000000000000000E+00   0.283634648185686E+00   0.208188063845729E+00   0.215016676141051E-02  -0.763732080948225E-10
  0.549313074619330E-04
    0.400000000000000E+02   0.000000000000000E+00   0.277948559278421E+00   0.208218818512344E+00   0.214946260635138E-02  -0.865115575872423E-10
  0.550761907399752E-04
    0.400000000000000E+02   0.000000000000000E+00   0.272376375928981E+00   0.208248543255038E+00   0.214823266554597E-02  -0.964202107403607E-10
  0.552001911328115E-04
    0.400000000000000E+02   0.000000000000000E+00   0.266915816344678E+00   0.208277293314654E+00   0.214651056094051E-02  -0.106009460695293E-09
  0.553047136501076E-04
    0.400000000000000E+02   0.000000000000000E+00   0.261564644442424E+00   0.208305119888196E+00   0.214432784595128E-02  -0.115279982439807E-09
  0.553910842498656E-04
    0.400000000000000E+02   0.000000000000000E+00   0.256320668933066E+00   0.208332070577681E+00   0.214171413446439E-02  -0.124240721276741E-09
  0.554605556513486E-04
    0.400000000000000E+02   0.000000000000000E+00   0.251181742424061E+00   0.208358189831041E+00   0.213869722055426E-02  -0.132905008642461E-09
  0.555143076603024E-04
    0.400000000000000E+02   0.000000000000000E+00   0.246145760540118E+00   0.208383519234661E+00   0.213530318683130E-02  -0.141287022314966E-09
  0.555534468212768E-04
    0.400000000000000E+02   0.000000000000000E+00   0.241210661061472E+00   0.208408097804542E+00   0.213155650436264E-02  -0.149400425009275E-09
  0.555790070148203E-04
    0.400000000000000E+02   0.000000000000000E+00   0.236374423079403E+00   0.208431962213809E+00   0.212748012568457E-02  -0.157263389730015E-09
  0.555919504630278E-04
    0.400000000000000E+02   0.000000000000000E+00   0.231635066168683E+00   0.208455146953698E+00   0.212309557109327E-02  -0.164893822191996E-09
  0.555931691384655E-04
    0.400000000000000E+02   0.000000000000000E+00   0.226990649576601E+00   0.208477684527114E+00   0.211842300955337E-02  -0.172309506841936E-09
  0.555834867784282E-04
    0.400000000000000E+02   0.000000000000000E+00   0.222439271428222E+00   0.208499605563621E+00   0.211348133474422E-02  -0.179530070947787E-09
  0.555636609658664E-04
    0.400000000000000E+02   0.000000000000000E+00   0.217979067947586E+00   0.208520938948168E+00   0.210828823659605E-02  -0.186701322298311E-09
  0.555343855241493E-04
    0.400000000000000E+02   0.000000000000000E+00   0.213608212694485E+00   0.208541711910404E+00   0.210286026893766E-02  -0.193676493311668E-09
  0.554962934191500E-04
    0.400000000000000E+02   0.000000000000000E+00   0.209324915816553E+00   0.208561950146258E+00   0.209721291384250E-02  -0.200353912878124E-09
  0.554499600508771E-04
    0.400000000000000E+02   0.000000000000000E+00   0.205127423316318E+00   0.208581677838609E+00   0.209136064329620E-02  -0.207006781793769E-09
  0.553959068641158E-04
    0.400000000000000E+02   0.000000000000000E+00   0.201014016332947E+00   0.208600917824079E+00   0.208531697830167E-02  -0.213583094196629E-09
  0.553346047412574E-04
    0.400000000000000E+02   0.000000000000000E+00   0.196983010438383E+00   0.208619691565884E+00   0.207909454459208E-02  -0.220094213623647E-09
  0.552664774628549E-04
    0.400000000000000E+02   0.000000000000000E+00   0.193032754947569E+00   0.208638019303607E+00   0.207270512629430E-02  -0.226557752686708E-09
  0.551919057444150E-04
    0.400000000000000E+02   0.000000000000000E+00   0.189161632242501E+00   0.208655920047355E+00   0.206615971794125E-02  -0.232994059596600E-09
  0.551112309047677E-04
    0.400000000000000E+02   0.000000000000000E+00   0.185368057109821E+00   0.208673411711663E+00   0.205946857341096E-02  -0.239422902716094E-09
  0.550247582790157E-04
    0.400000000000000E+02   0.000000000000000E+00   0.181650476091670E+00   0.208690511083639E+00   0.205264125278751E-02  -0.245857628829628E-09
  0.549327609443845E-04
    0.400000000000000E+02   0.000000000000000E+00   0.178007366849557E+00   0.208707233976291E+00   0.204568666744407E-02  -0.252316876346275E-09
  0.548354831009848E-04
    0.400000000000000E+02   0.000000000000000E+00   0.174437237540964E+00   0.208723595199456E+00   0.203861312292204E-02  -0.258814490022699E-09
  0.547331431920854E-04
    0.400000000000000E+02   0.000000000000000E+00   0.170938626208443E+00   0.208739608679445E+00   0.203142835977685E-02  -0.265363253477482E-09
  0.546259370562464E-04
    0.400000000000000E+02   0.000000000000000E+00   0.167510100180943E+00   0.208755287454917E+00   0.202413959220525E-02  -0.271977270126401E-09
  0.545140407046868E-04
    0.400000000000000E+02   0.000000000000000E+00   0.164150255487143E+00   0.208770643781210E+00   0.201675354454583E-02  -0.278665948013269E-09
  0.543976130620813E-04
    0.400000000000000E+02   0.000000000000000E+00   0.160857716280523E+00   0.208785689122828E+00   0.200927648639530E-02  -0.285436775085190E-09
  0.542767984991948E-04
    0.400000000000000E+02   0.000000000000000E+00   0.157631134275964E+00   0.208800434275124E+00   0.200171426555075E-02  -0.292305067113462E-09
  0.541517286204269E-04
    0.400000000000000E+02   0.000000000000000E+00   0.154469188197627E+00   0.208814889313808E+00   0.199407233857330E-02  -0.299272868977857E-09
  0.540225243905277E-04
    0.400000000000000E+02   0.000000000000000E+00   0.151370583237895E+00   0.208829063739098E+00   0.198635580007468E-02  -0.306348414850819E-09
  0.538892981908150E-04
    0.400000000000000E+02   0.000000000000000E+00   0.148334050527150E+00   0.208842966434607E+00   0.197856941000427E-02  -0.313539356410401E-09
  0.537521550399513E-04
    0.400000000000000E+02   0.000000000000000E+00   0.145358346614181E+00   0.208856605767879E+00   0.197071761892488E-02  -0.320849959589280E-09
  0.536111940048642E-04
    0.400000000000000E+02   0.000000000000000E+00   0.142442252956989E+00   0.208869989580120E+00   0.196280459210605E-02  -0.328282893830728E-09
  0.534665096792812E-04
    0.400000000000000E+02   0.000000000000000E+00   0.139584575423799E+00   0.208883125276535E+00   0.195483423207886E-02  -0.335841678111389E-09
  0.533181931616738E-04
    0.400000000000000E+02   0.000000000000000E+00   0.136784143804069E+00   0.208896019800261E+00   0.194681019929586E-02  -0.343530950073260E-09
  0.531663325720187E-04
    0.400000000000000E+02   0.000000000000000E+00   0.134039811329286E+00   0.208908679737080E+00   0.193873593084038E-02  -0.351353754054257E-09
  0.530110136994576E-04
    0.400000000000000E+02   0.000000000000000E+00   0.131350454203377E+00   0.208921111248432E+00   0.193061465822558E-02  -0.359307734233921E-09
  0.528523209444896E-04
    0.400000000000000E+02   0.000000000000000E+00   0.128714971142509E+00   0.208933320224923E+00   0.192244942410118E-02  -0.367400127750835E-09
  0.526903378159845E-04
    0.400000000000000E+02   0.000000000000000E+00   0.126132282924122E+00   0.208945312172850E+00   0.191424309769407E-02  -0.375626669623330E-09
  0.525251473778401E-04
    0.400000000000000E+02   0.000000000000000E+00   0.123601331944987E+00   0.208957092383002E+00   0.190599838916662E-02  -0.383988782213177E-09
  0.523568324456283E-04
    0.400000000000000E+02   0.000000000000000E+00   0.121121081788123E+00   0.208968665827235E+00   0.189771786183596E-02  -0.392491611271686E-09
  0.521854752975238E-04
    0.400000000000000E+02   0.000000000000000E+00   0.118690516798389E+00   0.208980037285499E+00   0.188940394358550E-02  -0.401133439803214E-09
  0.520111581327011E-04
    0.400000000000000E+02   0.000000000000000E+00   0.116308641666569E+00   0.208991211262848E+00   0.188105893847486E-02  -0.409908241626712E-09
  0.518339637159472E-04
    0.400000000000000E+02   0.000000000000000E+00   0.113974481021805E+00   0.209002192126105E+00   0.187268503691095E-02  -0.418827216520781E-09
  0.516539750145355E-04
    0.400000000000000E+02   0.000000000000000E+00   0.111687079032179E+00   0.209012983998897E+00   0.186428432445349E-02  -0.427891699251585E-09
  0.514712749520553E-04
    0.400000000000000E+02   0.000000000000000E+00   0.109445499013304E+00   0.209023590885534E+00   0.185585879028976E-02  -0.436867914148270E-09
  0.512859466236302E-04
    0.400000000000000E+02   0.000000000000000E+00   0.107248823044758E+00   0.209034016604345E+00   0.184741033464128E-02  -0.446102207140366E-09
  0.510980730343739E-04
    0.400000000000000E+02   0.000000000000000E+00   0.105096151594192E+00   0.209044264843389E+00   0.183894077533861E-02  -0.455924115674473E-09
  0.509077370182315E-04
    0.400000000000000E+02   0.000000000000000E+00   0.102986603148981E+00   0.209054339173426E+00   0.183045185439412E-02  -0.465580252640513E-09
  0.507150214586167E-04
    0.400000000000000E+02   0.000000000000000E+00   0.100919313855241E+00   0.209064243041604E+00   0.182194524403622E-02  -0.475291968369709E-09
  0.505200089175734E-04
    0.400000000000000E+02   0.000000000000000E+00   0.988934371640884E-01   0.209073979784355E+00   0.181342255145170E-02  -0.485315571415093E-09
  0.503227812094185E-04
    0.400000000000000E+02   0.000000000000000E+00   0.969081434849771E-01   0.209083552649614E+00   0.180488532330485E-02  -0.494973925454634E-09
  0.501234195166175E-04
    0.400000000000000E+02   0.000000000000000E+00   0.949626198459858E-01   0.209092964795479E+00   0.179633505034809E-02  -0.504558378647548E-09
  0.499220041103204E-04
    0.400000000000000E+02   0.000000000000000E+00   0.930560695609073E-01   0.209102219288634E+00   0.178777317084795E-02  -0.514662784386224E-09
  0.497186139301991E-04
    0.400000000000000E+02   0.000000000000000E+00   0.911877119030085E-01   0.209111319124380E+00   0.177920107366530E-02  -0.525123699002311E-09
  0.495133265940293E-04
    0.400000000000000E+02   0.000000000000000E+00   0.893567817853244E-01   0.209120267237447E+00   0.177062010145078E-02  -0.535736925297606E-09
  0.493062180225812E-04
    0.400000000000000E+02   0.000000000000000E+00   0.875625294473579E-01   0.209129066487353E+00   0.176203155317431E-02  -0.546502689124861E-09
  0.490973620191940E-04
    0.400000000000000E+02   0.000000000000000E+00   0.858042201480547E-01   0.209137719669947E+00   0.175343668609832E-02  -0.557427921714708E-09
  0.488868302002225E-04
    0.400000000000000E+02   0.000000000000000E+00   0.840811338649290E-01   0.209146229531714E+00   0.174483671798563E-02  -0.568511359872655E-09
  0.486746919651281E-04
    0.400000000000000E+02   0.000000000000000E+00   0.823925649992168E-01   0.209154598751172E+00   0.173623282914414E-02  -0.579767104075709E-09
  0.484610139645654E-04
    0.400000000000000E+02   0.000000000000000E+00   0.807378220869347E-01   0.209162829967631E+00   0.172762616336165E-02  -0.591195797803378E-09
  0.482458595385531E-04
    0.400000000000000E+02   0.000000000000000E+00   0.791162275157278E-01   0.209170925752921E+00   0.171901782888959E-02  -0.602985468249198E-09
  0.480292887759731E-04
    0.400000000000000E+02   0.000000000000000E+00   0.775271172473894E-01   0.209178888631059E+00   0.171040889969689E-02  -0.614962294381453E-09
  0.478113584067383E-04
    0.400000000000000E+02   0.000000000000000E+00   0.759698405459393E-01   0.209186721091329E+00   0.170180041641721E-02  -0.626956569010405E-09
  0.475921215487885E-04
    0.400000000000000E+02   0.000000000000000E+00   0.744437597111493E-01   0.209194425538985E+00   0.169319338712440E-02  -0.639161708915578E-09
  0.473716275000810E-04
    0.400000000000000E+02   0.000000000000000E+00   0.729482498174066E-01   0.209202004367525E+00   0.168458878777854E-02  -0.651395214572688E-09
  0.471499213883568E-04
    0.400000000000000E+02   0.000000000000000E+00   0.714826984578092E-01   0.209209459885033E+00   0.167598756247965E-02  -0.664029858851643E-09
  0.469270441174398E-04
    0.400000000000000E+02   0.000000000000000E+00   0.700465054933864E-01   0.209216794368717E+00   0.166739062400423E-02  -0.677316236002384E-09
  0.467030323609322E-04
    0.400000000000000E+02   0.000000000000000E+00   0.686390828073441E-01   0.209224010040160E+00   0.165879885407657E-02  -0.690304748306709E-09
  0.464779182333163E-04
    0.400000000000000E+02   0.000000000000000E+00   0.672598540642326E-01   0.209231109062686E+00   0.165021310327542E-02  -0.703488143904785E-09
  0.462517293812682E-04
    0.400000000000000E+02   0.000000000000000E+00   0.659082544739388E-01   0.209238093543612E+00   0.164163419134149E-02  -0.717509318765489E-09
  0.460244891538039E-04
    0.400000000000000E+02   0.000000000000000E+00   0.645837305604063E-01   0.209244965546936E+00   0.163306290736591E-02  -0.731901886326238E-09
  0.457962163478638E-04
    0.400000000000000E+02   0.000000000000000E+00   0.632857399349891E-01   0.209251727081615E+00   0.162450000983675E-02  -0.746239513263000E-09
  0.455669252552606E-04
    0.400000000000000E+02   0.000000000000000E+00   0.620137510743441E-01   0.209258380102334E+00   0.161594622670395E-02  -0.760702990582572E-09
  0.453366258670827E-04
    0.400000000000000E+02   0.000000000000000E+00   0.607672431027748E-01   0.209264926483946E+00   0.160740225554230E-02  -0.775643620734186E-09
  0.451053240042846E-04
    0.400000000000000E+02   0.000000000000000E+00   0.595457055789335E-01   0.209271368071864E+00   0.159886876383234E-02  -0.790946869990273E-09
  0.448730213952959E-04
    0.400000000000000E+02   0.000000000000000E+00   0.583486382867977E-01   0.209277706658413E+00   0.159034638901031E-02  -0.806766945348583E-09
  0.446397158207282E-04
    0.400000000000000E+02   0.000000000000000E+00   0.571755510308326E-01   0.209283943948680E+00   0.158183573853257E-02  -0.822894362519549E-09
  0.444054014152003E-04
    0.400000000000000E+02   0.000000000000000E+00   0.560259634352577E-01   0.209290081635811E+00   0.157333739003937E-02  -0.839174772428312E-09
  0.441700687108497E-04
    0.400000000000000E+02   0.000000000000000E+00   0.548994047473344E-01   0.209296121322044E+00   0.156485189161504E-02  -0.855822990412247E-09
  0.439337049060339E-04
    0.400000000000000E+02   0.000000000000000E+00   0.537954136445938E-01   0.209302064564072E+00   0.155637976230820E-02  -0.872920987803336E-09
  0.436962945057230E-04
    0.400000000000000E+02   0.000000000000000E+00   0.527135380459270E-01   0.209307912875932E+00   0.154792149260180E-02  -0.890579406724724E-09
  0.434578191942673E-04
    0.400000000000000E+02   0.000000000000000E+00   0.516533349264589E-01   0.209313667715922E+00   0.153947754448523E-02  -0.908871857196325E-09
  0.432182578745615E-04
    0.400000000000000E+02   0.000000000000000E+00   0.506143701361309E-01   0.209319330476537E+00   0.153104835187098E-02  -0.927959691411840E-09
  0.429775877295788E-04
    0.400000000000000E+02   0.000000000000000E+00   0.495962182219175E-01   0.209324902518961E+00   0.152263432153003E-02  -0.947589354427078E-09
  0.427357841593119E-04
    0.400000000000000E+02   0.000000000000000E+00   0.485984622536049E-01   0.209330385164122E+00   0.151423583357393E-02  -0.967552895741645E-09
  0.424928205231690E-04
    0.400000000000000E+02   0.000000000000000E+00   0.476206936530593E-01   0.209335779645242E+00   0.150585324207647E-02  -0.988083371969738E-09
  0.422486690166595E-04
    0.400000000000000E+02   0.000000000000000E+00   0.466625120269149E-01   0.209341087206497E+00   0.149748687620185E-02  -0.100921004230456E-08
  0.420033007615666E-04
    0.400000000000000E+02   0.000000000000000E+00   0.457235250026146E-01   0.209346309002661E+00   0.148913704095552E-02  -0.103095229120439E-08
  0.417566855409492E-04
    0.400000000000000E+02   0.000000000000000E+00   0.448033480677340E-01   0.209351446186862E+00   0.148080401761708E-02  -0.105333115798111E-08
  0.415087920657660E-04
    0.400000000000000E+02   0.000000000000000E+00   0.439016044125251E-01   0.209356499837813E+00   0.147248806450159E-02  -0.107637110344956E-08
  0.412595880300029E-04
    0.400000000000000E+02   0.000000000000000E+00   0.430179247756139E-01   0.209361471032360E+00   0.146418941790401E-02  -0.110009461118285E-08
  0.410090400844843E-04
    0.400000000000000E+02   0.000000000000000E+00   0.421519472927885E-01   0.209366360777341E+00   0.145590829278098E-02  -0.112477136108480E-08
  0.407571136672785E-04
    0.400000000000000E+02   0.000000000000000E+00   0.413033173488170E-01   0.209371170077973E+00   0.144764488321898E-02  -0.114994403905979E-08
  0.405037730399316E-04
    0.400000000000000E+02   0.000000000000000E+00   0.404716874322339E-01   0.209375899875965E+00   0.143939936305202E-02  -0.117562367641066E-08
  0.402489815474262E-04
    0.400000000000000E+02   0.000000000000000E+00   0.396567169930346E-01   0.209380551099012E+00   0.143117188578781E-02  -0.120259836062603E-08
  0.399927005038140E-04
    0.400000000000000E+02   0.000000000000000E+00   0.388580723032217E-01   0.209385124657737E+00   0.142296258341069E-02  -0.123041955289691E-08
  0.397348884236333E-04
    0.400000000000000E+02   0.000000000000000E+00   0.380754263201440E-01   0.209389621389184E+00   0.141477156534194E-02  -0.125884899031879E-08
  0.394755020525478E-04
    0.400000000000000E+02   0.000000000000000E+00   0.373084585525739E-01   0.209394042128705E+00   0.140659891764716E-02  -0.128816552524632E-08
  0.392144968706176E-04
    0.400000000000000E+02   0.000000000000000E+00   0.365568549294665E-01   0.209398387670732E+00   0.139844470166397E-02  -0.131815914530541E-08
  0.389518266470314E-04
    0.400000000000000E+02   0.000000000000000E+00   0.358203076713493E-01   0.209402658780416E+00   0.139030895189966E-02  -0.134912348158883E-08
  0.386874436178109E-04
    0.400000000000000E+02   0.000000000000000E+00   0.350985151642866E-01   0.209406856178031E+00   0.138219167372152E-02  -0.138153151300580E-08
  0.384212999465576E-04
    0.400000000000000E+02   0.000000000000000E+00   0.343911818363703E-01   0.209410980574314E+00   0.137409284135143E-02  -0.141517464423991E-08
  0.381533485699968E-04
    0.400000000000000E+02   0.000000000000000E+00   0.336980180366831E-01   0.209415032628658E+00   0.136601239561382E-02  -0.144956469073484E-08
  0.378835437996829E-04
    0.400000000000000E+02   0.000000000000000E+00   0.330187399166882E-01   0.209419013003626E+00   0.135795024181230E-02  -0.148427480720614E-08
  0.376118436665626E-04
    0.400000000000000E+02   0.000000000000000E+00   0.323530693139937E-01   0.209422922303272E+00   0.134990624841295E-02  -0.152041362969116E-08
  0.373382118044879E-04
    0.400000000000000E+02   0.000000000000000E+00   0.317007336384459E-01   0.209426761132818E+00   0.134188024624999E-02  -0.155844740413954E-08
  0.370626189704807E-04
    0.400000000000000E+02   0.000000000000000E+00   0.310614657605047E-01   0.209430530079591E+00   0.133387202897579E-02  -0.159727086037961E-08
  0.367850456383258E-04
    0.400000000000000E+02   0.000000000000000E+00   0.304350039018545E-01   0.209434229734453E+00   0.132588135508557E-02  -0.163689265590277E-08
  0.365054846365555E-04
    0.400000000000000E+02   0.000000000000000E+00   0.298210915282071E-01   0.209437860685524E+00   0.131790795102776E-02  -0.167780635170847E-08
  0.362239428967305E-04
    0.400000000000000E+02   0.000000000000000E+00   0.292194772442515E-01   0.209441423532413E+00   0.130995151567983E-02  -0.171926578401846E-08
  0.359404430345836E-04
    0.400000000000000E+02   0.000000000000000E+00   0.286299146907080E-01   0.209444918897933E+00   0.130201172674140E-02  -0.176109718160357E-08
  0.356550253578412E-04
    0.400000000000000E+02   0.000000000000000E+00   0.280521624434454E-01   0.209448347417750E+00   0.129408824890366E-02  -0.180354016910699E-08
  0.353677489007622E-04
    0.400000000000000E+02   0.000000000000000E+00   0.274859839146178E-01   0.209451709820950E+00   0.128618074357338E-02  -0.184655878426339E-08
  0.350786915137412E-04
    0.400000000000000E+02   0.000000000000000E+00   0.269311472557833E-01   0.209455006825165E+00   0.127828887983587E-02  -0.189051084479031E-08
  0.347879493080549E-04
    0.400000000000000E+02   0.000000000000000E+00   0.263874252629623E-01   0.209458239275771E+00   0.127041234650078E-02  -0.193447094617588E-08
  0.344956352454967E-04
    0.400000000000000E+02   0.000000000000000E+00   0.258545952835980E-01   0.209461408022068E+00   0.126255086505503E-02  -0.197835894723412E-08
  0.342018770476077E-04
    0.400000000000000E+02   0.000000000000000E+00   0.253324391253814E-01   0.209464514049979E+00   0.125470420301621E-02  -0.202308208426250E-08
  0.339068138454544E-04
    0.400000000000000E+02   0.000000000000000E+00   0.248207429669017E-01   0.209467558368915E+00   0.124687218687473E-02  -0.206821245967183E-08
  0.336105912734420E-04
    0.400000000000000E+02   0.000000000000000E+00   0.243192972700873E-01   0.209470542120993E+00   0.123905471400097E-02  -0.211303622400777E-08
  0.333133561386386E-04
    0.400000000000000E+02   0.000000000000000E+00   0.238278966944003E-01   0.209473466469121E+00   0.123125176331825E-02  -0.215767980906581E-08
  0.330152503622367E-04
    0.400000000000000E+02   0.000000000000000E+00   0.233463400127506E-01   0.209476332705738E+00   0.122346340413910E-02  -0.220259837350215E-08
  0.327164039255762E-04
    0.400000000000000E+02   0.000000000000000E+00   0.228744300290936E-01   0.209479142124260E+00   0.121568980240326E-02  -0.224810052474265E-08
  0.324169272703281E-04
    0.400000000000000E+02   0.000000000000000E+00   0.224119734976793E-01   0.209481896131594E+00   0.120793122386789E-02  -0.229424027272280E-08
  0.321169033484952E-04
    0.400000000000000E+02   0.000000000000000E+00   0.219587810439183E-01   0.209484596104665E+00   0.120018803386568E-02  -0.234128513797520E-08
  0.318163795258458E-04
    0.400000000000000E+02   0.000000000000000E+00   0.215146670868341E-01   0.209487243491762E+00   0.119246069316977E-02  -0.238945457875395E-08
  0.315153597410617E-04
    0.400000000000000E+02   0.000000000000000E+00   0.210794497630676E-01   0.209489839706236E+00   0.118474974967041E-02  -0.243900075780523E-08
  0.312137971225676E-04
    0.400000000000000E+02   0.000000000000000E+00   0.206529508524050E-01   0.209492386142492E+00   0.117705582607338E-02  -0.249062318249094E-08
  0.309115868097766E-04
    0.400000000000000E+02   0.000000000000000E+00   0.202349957047970E-01   0.209494884138846E+00   0.116937960359954E-02  -0.254498574916241E-08
  0.306085602216638E-04
    0.400000000000000E+02   0.000000000000000E+00   0.198254131688403E-01   0.209497334961354E+00   0.116172180165574E-02  -0.260274663356515E-08
  0.303044805958525E-04
    0.400000000000000E+02   0.000000000000000E+00   0.194240355216910E-01   0.209499739768768E+00   0.115408315385974E-02  -0.266468575669114E-08
  0.299990394247908E-04
    0.400000000000000E+02   0.000000000000000E+00   0.190306984003836E-01   0.209502099599287E+00   0.114646438070525E-02  -0.273164336073756E-08
  0.296918542610318E-04
    0.400000000000000E+02   0.000000000000000E+00   0.186452407345237E-01   0.209504415335611E+00   0.113886615930141E-02  -0.280449866499507E-08
  0.293824682986906E-04
    0.400000000000000E+02   0.000000000000000E+00   0.182675046803313E-01   0.209506687692989E+00   0.113128909097625E-02  -0.288417029457248E-08
  0.290703518875725E-04
    0.400000000000000E+02   0.000000000000000E+00   0.178973355560032E-01   0.209508917191743E+00   0.112373366744237E-02  -0.297161126982735E-08
  0.287549056071906E-04
    0.400000000000000E+02   0.000000000000000E+00   0.175345817783720E-01   0.209511104148944E+00   0.111620023614889E-02  -0.306778109315924E-08
  0.284354650240027E-04
    0.400000000000000E+02   0.000000000000000E+00   0.171790948008328E-01   0.209513248657899E+00   0.110868896554600E-02  -0.317363259342014E-08
  0.281113070619878E-04
    0.400000000000000E+02   0.000000000000000E+00   0.168307290525140E-01   0.209515350591063E+00   0.110119981090579E-02  -0.329010779991167E-08
  0.277816575814452E-04
    0.400000000000000E+02   0.000000000000000E+00   0.164893418786666E-01   0.209517409578593E+00   0.109373248139565E-02  -0.341809930500636E-08
  0.274457005021944E-04
    0.400000000000000E+02   0.000000000000000E+00   0.161547934822470E-01   0.209519425027228E+00   0.108628640921702E-02  -0.355844875774126E-08
  0.271025882727202E-04
    0.400000000000000E+02   0.000000000000000E+00   0.158269468666710E-01   0.209521396105128E+00   0.107886072142427E-02  -0.371192215509616E-08
  0.267514530902729E-04
    0.400000000000000E+02   0.000000000000000E+00   0.155056677797140E-01   0.209523321768136E+00   0.107145421491034E-02  -0.387920106183999E-08
  0.263914187716730E-04
    0.400000000000000E+02   0.000000000000000E+00   0.151908246585350E-01   0.209525200753574E+00   0.106406533504376E-02  -0.406085350662017E-08
  0.260216131994674E-04
    0.400000000000000E+02   0.000000000000000E+00   0.148822885758020E-01   0.209527031613569E+00   0.105669215837127E-02  -0.425733985486793E-08
  0.256411809353833E-04
    0.400000000000000E+02   0.000000000000000E+00   0.145799331868968E-01   0.209528812718421E+00   0.104933237970182E-02  -0.446899196659619E-08
  0.252492958421521E-04