title="sliced surface data"
variables="x","y","z","cp","cfx","cfy","cfz"
zone t="xslice 0.4000000E+02 loop 1", i=193, f=point,  solutiontime=  0.303720000000E+05, strandid=1
    0.400000000000000E+02   0.000000000000000E+00   0.500000000000000E+00   0.207044076624935E+00   0.186569905772767E-02   0.505662173987711E-08
  0.691040900656732E-05
    0.400000000000000E+02   0.000000000000000E+00   0.480159953503923E+00   0.207081147324047E+00   0.187498866006362E-02   0.454133852080547E-08
  0.131843600977453E-04
    0.400000000000000E+02   0.000000000000000E+00   0.461106829675924E+00   0.207178061613555E+00   0.190082934132205E-02   0.338700667720865E-08
  0.248492685596386E-04
    0.400000000000000E+02   0.000000000000000E+00   0.442809416528380E+00   0.207312041433657E+00   0.193724974885115E-02   0.214802651958314E-08
  0.339644835590406E-04
    0.400000000000000E+02   0.000000000000000E+00   0.425237740045602E+00   0.207458540705807E+00   0.197746917180785E-02   0.115693106832339E-08
  0.404309211620777E-04
    0.400000000000000E+02   0.000000000000000E+00   0.408363015081715E+00   0.207600428362722E+00   0.201610539543003E-02   0.601079840211673E-09
  0.447142156240166E-04
    0.400000000000000E+02   0.000000000000000E+00   0.392157598206102E+00   0.207729944400548E+00   0.205010342591411E-02   0.354625318906474E-09
  0.475001413348609E-04
    0.400000000000000E+02   0.000000000000000E+00   0.376594942419153E+00   0.207845698434850E+00   0.207840592666603E-02   0.242662292976235E-09
  0.493842859747969E-04
    0.400000000000000E+02   0.000000000000000E+00   0.361649553664141E+00   0.207949009878297E+00   0.210110390903028E-02   0.169455900508625E-09
  0.507545922757076E-04
    0.400000000000000E+02   0.000000000000000E+00   0.347296949063983E+00   0.208041814823213E+00   0.211873705356619E-02   0.106255398364640E-09
  0.518196124099606E-04
    0.400000000000000E+02   0.000000000000000E+00   0.333513616814471E+00   0.208125865972526E+00   0.213192687027440E-02   0.480702905316020E-10
  0.526795832048917E-04
    0.400000000000000E+02   0.000000000000000E+00   0.320276977668265E+00   0.208202571335999E+00   0.214124446034597E-02  -0.536529185944225E-11
  0.533823674196792E-04
    0.400000000000000E+02   0.000000000000000E+00   0.307565347946573E+00   0.208273033526670E+00   0.214718468292943E-02  -0.544841140012907E-10
  0.539540495830508E-04
    0.400000000000000E+02   0.000000000000000E+00   0.295357904017898E+00   0.208338123386012E+00   0.215017324308041E-02  -0.998866789343270E-10
  0.544122888979831E-04
    0.400000000000000E+02   0.000000000000000E+00   0.283634648185686E+00   0.208398540921180E+00   0.215057856230809E-02  -0.142040125254981E-09
  0.547712804288864E-04
    0.400000000000000E+02   0.000000000000000E+00   0.272376375928981E+00   0.208454859959850E+00   0.214872157700375E-02  -0.181291286049378E-09
  0.550433819680987E-04
    0.400000000000000E+02   0.000000000000000E+00   0.261564644442424E+00   0.208507559224576E+00   0.214488332690203E-02  -0.217970758682313E-09
  0.552395996287416E-04
    0.400000000000000E+02   0.000000000000000E+00   0.251181742424061E+00   0.208557043353654E+00   0.213931084573768E-02  -0.252316620166441E-09
  0.553697491648979E-04
    0.400000000000000E+02   0.000000000000000E+00   0.241210661061472E+00   0.208603658337691E+00   0.213222157263569E-02  -0.284512928332913E-09
  0.554425395716468E-04
    0.400000000000000E+02   0.000000000000000E+00   0.231635066168683E+00   0.208647703096649E+00   0.212380678887431E-02  -0.314807167309620E-09
  0.554656126591588E-04
    0.400000000000000E+02   0.000000000000000E+00   0.222439271428222E+00   0.208689437508193E+00   0.211423454188207E-02  -0.343521322449937E-09
  0.554455626291622E-04
    0.400000000000000E+02   0.000000000000000E+00   0.213608212694485E+00   0.208729088244534E+00   0.210365220721450E-02  -0.371002533489468E-09
  0.553879761886203E-04
    0.400000000000000E+02   0.000000000000000E+00   0.205127423316318E+00   0.208766853213148E+00   0.209218876099792E-02  -0.397587927696025E-09
  0.552975060405077E-04
    0.400000000000000E+02   0.000000000000000E+00   0.196983010438383E+00   0.208802905132437E+00   0.207995683089738E-02  -0.423611039428935E-09
  0.551779688434422E-04
    0.400000000000000E+02   0.000000000000000E+00   0.189161632242501E+00   0.208837394497711E+00   0.206705456611862E-02  -0.449395670706519E-09
  0.550324564907712E-04
    0.400000000000000E+02   0.000000000000000E+00   0.181650476091670E+00   0.208870452186031E+00   0.205356734922756E-02  -0.475224140179175E-09
  0.548634515269049E-04
    0.400000000000000E+02   0.000000000000000E+00   0.174437237540964E+00   0.208902191776942E+00   0.203956936215173E-02  -0.501341157090548E-09
  0.546729394710807E-04
    0.400000000000000E+02   0.000000000000000E+00   0.167510100180943E+00   0.208932711679918E+00   0.202512501309926E-02  -0.527955230782884E-09
  0.544625128737105E-04
    0.400000000000000E+02   0.000000000000000E+00   0.160857716280523E+00   0.208962097071722E+00   0.201029022895012E-02  -0.555239900036121E-09
  0.542334638465512E-04
    0.400000000000000E+02   0.000000000000000E+00   0.154469188197627E+00   0.208990421695419E+00   0.199511361710009E-02  -0.583335009034927E-09
  0.539868630765066E-04
    0.400000000000000E+02   0.000000000000000E+00   0.148334050527150E+00   0.209017749472833E+00   0.197963750062393E-02  -0.612342112623179E-09
  0.537236249243168E-04
    0.400000000000000E+02   0.000000000000000E+00   0.142442252956989E+00   0.209044135986697E+00   0.196389883271523E-02  -0.642333038934865E-09
  0.534445590233042E-04
    0.400000000000000E+02   0.000000000000000E+00   0.136784143804069E+00   0.209069629787060E+00   0.194792999677756E-02  -0.673359104401675E-09
  0.531504094369630E-04
    0.400000000000000E+02   0.000000000000000E+00   0.131350454203377E+00   0.209094273544600E+00   0.193175950033385E-02  -0.705451106633698E-09
  0.528418832667125E-04
    0.400000000000000E+02   0.000000000000000E+00   0.126132282924122E+00   0.209118105069899E+00   0.191541257238588E-02  -0.738630393040185E-09
  0.525196700952325E-04
    0.400000000000000E+02   0.000000000000000E+00   0.121121081788123E+00   0.209141158178934E+00   0.189891167237630E-02  -0.772911070141920E-09
  0.521844539641419E-04
    0.400000000000000E+02   0.000000000000000E+00   0.116308641666569E+00   0.209163463429574E+00   0.188227692080296E-02  -0.808295937151787E-09
  0.518369198673215E-04
    0.400000000000000E+02   0.000000000000000E+00   0.111687079032179E+00   0.209185048751266E+00   0.186552646156419E-02  -0.844773798606780E-09
  0.514777557681550E-04
    0.400000000000000E+02   0.000000000000000E+00   0.107248823044758E+00   0.209205939959746E+00   0.184867676373604E-02  -0.882346944661140E-09
  0.511076510736452E-04
    0.400000000000000E+02   0.000000000000000E+00   0.102986603148981E+00   0.209226161175132E+00   0.183174287071261E-02  -0.921030588645033E-09
  0.507272927726488E-04
    0.400000000000000E+02   0.000000000000000E+00   0.988934371640884E-01   0.209245735161162E+00   0.181473860477772E-02  -0.960823727333923E-09
  0.503373598969787E-04
    0.400000000000000E+02   0.000000000000000E+00   0.949626198459858E-01   0.209264683587287E+00   0.179767673336738E-02  -0.100175075739847E-08
  0.499385165631760E-04
    0.400000000000000E+02   0.000000000000000E+00   0.911877119030085E-01   0.209283027225370E+00   0.178056910206251E-02  -0.104386863963120E-08
  0.495314040675716E-04
    0.400000000000000E+02   0.000000000000000E+00   0.875625294473579E-01   0.209300786088986E+00   0.176342673937696E-02  -0.108722102496943E-08
  0.491166326828544E-04
    0.400000000000000E+02   0.000000000000000E+00   0.840811338649290E-01   0.209317979521998E+00   0.174625993836268E-02  -0.113185003467532E-08
  0.486947736375065E-04
    0.400000000000000E+02   0.000000000000000E+00   0.807378220869347E-01   0.209334626252605E+00   0.172907831917986E-02  -0.117786707801966E-08
  0.482663514958178E-04
    0.400000000000000E+02   0.000000000000000E+00   0.775271172473894E-01   0.209350744412178E+00   0.171189087585875E-02  -0.122540599265436E-08
  0.478318372722696E-04
    0.400000000000000E+02   0.000000000000000E+00   0.744437597111493E-01   0.209366351530871E+00   0.169470601049677E-02  -0.127458589883329E-08
  0.473916428122522E-04
    0.400000000000000E+02   0.000000000000000E+00   0.714826984578092E-01   0.209381464515861E+00   0.167753155813536E-02  -0.132555955524370E-08
  0.469461168297298E-04
    0.400000000000000E+02   0.000000000000000E+00   0.686390828073441E-01   0.209396099622607E+00   0.166037480516914E-02  -0.137851658246194E-08
  0.464955427987079E-04
    0.400000000000000E+02   0.000000000000000E+00   0.659082544739388E-01   0.209410272423826E+00   0.164324250366756E-02  -0.143365849956565E-08
  0.460401387682746E-04
    0.400000000000000E+02   0.000000000000000E+00   0.632857399349891E-01   0.209423997781452E+00   0.162614088344589E-02  -0.149120181485054E-08
  0.455800590720605E-04
    0.400000000000000E+02   0.000000000000000E+00   0.607672431027748E-01   0.209437289826131E+00   0.160907566331754E-02  -0.155138632177610E-08
  0.451153978513447E-04
    0.400000000000000E+02   0.000000000000000E+00   0.583486382867977E-01   0.209450161946222E+00   0.159205206276260E-02  -0.161445547284263E-08
  0.446461942517365E-04
    0.400000000000000E+02   0.000000000000000E+00   0.560259634352577E-01   0.209462626790792E+00   0.157507481500330E-02  -0.168066510089624E-08
  0.441724389930426E-04
    0.400000000000000E+02   0.000000000000000E+00   0.537954136445938E-01   0.209474696284338E+00   0.155814818212878E-02  -0.175026591487256E-08
  0.436940818808578E-04
    0.400000000000000E+02   0.000000000000000E+00   0.516533349264589E-01   0.209486381655359E+00   0.154127597273137E-02  -0.182351144773050E-08
  0.432110397491650E-04
    0.400000000000000E+02   0.000000000000000E+00   0.495962182219175E-01   0.209497693475618E+00   0.152446156235568E-02  -0.190066771870960E-08
  0.427232041601873E-04
    0.400000000000000E+02   0.000000000000000E+00   0.476206936530593E-01   0.209508641709557E+00   0.150770791665935E-02  -0.198199238990834E-08
  0.422304480346276E-04
    0.400000000000000E+02   0.000000000000000E+00   0.457235250026146E-01   0.209519235766869E+00   0.149101761656441E-02  -0.206775144997940E-08
  0.417326303721934E-04
    0.400000000000000E+02   0.000000000000000E+00   0.439016044125251E-01   0.209529484556046E+00   0.147439288379055E-02  -0.215823811084871E-08
  0.412295983574816E-04
    0.400000000000000E+02   0.000000000000000E+00   0.421519472927885E-01   0.209539396531913E+00   0.145783560392284E-02  -0.225377354448840E-08
  0.407211864986493E-04
    0.400000000000000E+02   0.000000000000000E+00   0.404716874322339E-01   0.209548979732435E+00   0.144134734279465E-02  -0.235472212762146E-08
  0.402072132008545E-04
    0.400000000000000E+02   0.000000000000000E+00   0.388580723032217E-01   0.209558241800207E+00   0.142492935118071E-02  -0.246149818727585E-08
  0.396874763027524E-04
    0.400000000000000E+02   0.000000000000000E+00   0.373084585525739E-01   0.209567189990237E+00   0.140858255322392E-02  -0.257455921644631E-08
  0.391617502978782E-04
    0.400000000000000E+02   0.000000000000000E+00   0.358203076713493E-01   0.209575831167684E+00   0.139230751630970E-02  -0.269437302580393E-08
  0.386297890110342E-04
    0.400000000000000E+02   0.000000000000000E+00   0.343911818363703E-01   0.209584171807426E+00   0.137610440473593E-02  -0.282136095218451E-08
  0.380913378637431E-04
    0.400000000000000E+02   0.000000000000000E+00   0.330187399166882E-01   0.209592218012946E+00   0.135997292596756E-02  -0.295581594099821E-08
  0.375461589830871E-04
    0.400000000000000E+02   0.000000000000000E+00   0.317007336384459E-01   0.209599975571147E+00   0.134391228535510E-02  -0.309780126695610E-08
  0.369940701880084E-04
    0.400000000000000E+02   0.000000000000000E+00   0.304350039018545E-01   0.209607450062371E+00   0.132792117114760E-02  -0.324705276148271E-08
  0.364349953475143E-04
    0.400000000000000E+02   0.000000000000000E+00   0.292194772442515E-01   0.209614647031209E+00   0.131199779403228E-02  -0.340291498284776E-08
  0.358690191831804E-04
    0.400000000000000E+02   0.000000000000000E+00   0.280521624434454E-01   0.209621572218274E+00   0.129614000218174E-02  -0.356434612917385E-08
  0.352964352946714E-04
    0.400000000000000E+02   0.000000000000000E+00   0.269311472557833E-01   0.209628231826956E+00   0.128034548309279E-02  -0.373002164040156E-08
  0.347177733185722E-04
    0.400000000000000E+02   0.000000000000000E+00   0.258545952835980E-01   0.209634632793783E+00   0.126461204809709E-02  -0.389855922105790E-08
  0.341337906433860E-04
    0.400000000000000E+02   0.000000000000000E+00   0.248207429669017E-01   0.209640783009685E+00   0.124893797634240E-02  -0.406886827240598E-08
  0.335454166129486E-04
    0.400000000000000E+02   0.000000000000000E+00   0.238278966944003E-01   0.209646691442862E+00   0.123332237590537E-02  -0.424060150847892E-08
  0.329536428558436E-04
    0.400000000000000E+02   0.000000000000000E+00   0.228744300290936E-01   0.209652368112590E+00   0.121776550475026E-02  -0.441466169067286E-08
  0.323593615194814E-04
    0.400000000000000E+02   0.000000000000000E+00   0.219587810439183E-01   0.209657823884863E+00   0.120226898709285E-02  -0.459370003251940E-08
  0.317631623738796E-04
    0.400000000000000E+02   0.000000000000000E+00   0.210794497630676E-01   0.209663070078441E+00   0.118683586372588E-02  -0.478252856642100E-08
  0.311651083617700E-04
    0.400000000000000E+02   0.000000000000000E+00   0.202349957047970E-01   0.209668117901265E+00   0.117147042850606E-02  -0.498836446866425E-08
  0.305645155617699E-04
    0.400000000000000E+02   0.000000000000000E+00   0.194240355216910E-01   0.209672977760532E+00   0.115617782579754E-02  -0.522085320638773E-08
  0.299597662868631E-04
    0.400000000000000E+02   0.000000000000000E+00   0.186452407345237E-01   0.209677658514181E+00   0.114096341178950E-02  -0.549182973521887E-08
  0.293481826377721E-04
    0.400000000000000E+02   0.000000000000000E+00   0.178973355560032E-01   0.209682166739502E+00   0.112583191192814E-02  -0.581481111058875E-08
  0.287259824259281E-04
    0.400000000000000E+02   0.000000000000000E+00   0.171790948008328E-01   0.209686506102524E+00   0.111078643263181E-02  -0.620425173988946E-08
  0.280883306585788E-04
    0.400000000000000E+02   0.000000000000000E+00   0.164893418786666E-01   0.209690676895486E+00   0.109582740422753E-02  -0.667461703530221E-08
  0.274294893213101E-04
    0.400000000000000E+02   0.000000000000000E+00   0.158269468666710E-01   0.209694675798987E+00   0.108095154144271E-02  -0.723935433033575E-08
  0.267430576238329E-04
    0.400000000000000E+02   0.000000000000000E+00   0.151908246585350E-01   0.209698495894708E+00   0.106615090725245E-02  -0.790984924799239E-08
  0.260222855719650E-04
    0.400000000000000E+02   0.000000000000000E+00   0.145799331868968E-01   0.209702126936319E+00   0.105141215656004E-02  -0.869444949623105E-08
  0.252604370257763E-04
    0.400000000000000E+02   0.000000000000000E+00   0.139932717162748E-01   0.209705555852603E+00   0.103671602057264E-02  -0.959762783505106E-08
  0.244511749941921E-04
    0.400000000000000E+02   0.000000000000000E+00   0.134298792037074E-01   0.209708767447989E+00   0.102203707388620E-02  -0.106193335561991E-07
  0.235889417657900E-04
    0.400000000000000E+02   0.000000000000000E+00   0.128888327244140E-01   0.209711745239503E+00   0.100734380720616E-02  -0.117545567911695E-07
  0.226693092989194E-04
    0.400000000000000E+02   0.000000000000000E+00   0.123692459599011E-01   0.209714472374874E+00   0.992599011689436E-03  -0.129931088407127E-07
  0.216892802762405E-04
    0.400000000000000E+02   0.000000000000000E+00   0.118702677460337E-01   0.209716932565296E+00   0.977760467365449E-03  -0.143195952402219E-07
  0.206475263184284E-04
    0.400000000000000E+02   0.000000000000000E+00   0.113910806786963E-01   0.209719110981346E+00   0.962781918091250E-03  -0.157135607556259E-07
  0.195445560944242E-04
    0.400000000000000E+02   0.000000000000000E+00   0.109308997747572E-01   0.209720995063531E+00   0.947614308115640E-03  -0.171497727177520E-07
  0.183828115093987E-04
    0.400000000000000E+02   0.000000000000000E+00   0.104889711861438E-01   0.209722575214805E+00   0.932207249011763E-03  -0.185986358049966E-07
  0.171666943167376E-04
    0.400000000000000E+02   0.000000000000000E+00   0.100645709649220E-01   0.209723845352784E+00   0.916510678785013E-03  -0.200267060098930E-07
  0.159025278385755E-04
    0.400000000000000E+02   0.000000000000000E+00   0.965700387735635E-02   0.209724803314932E+00   0.900476666037789E-03  -0.213972084007604E-07
  0.145984590927662E-04
    0.400000000000000E+02   0.000000000000000E+00   0.926560226500915E-02   0.209725451110662E+00   0.884061300717595E-03  -0.226708475605107E-07
  0.132643060813166E-04
    0.400000000000000E+02   0.000000000000000E+00   0.888972495101158E-02   0.209725795032157E+00   0.867226599815648E-03  -0.238068339741903E-07
  0.119113536000967E-04
    0.400000000000000E+02   0.000000000000000E+00   0.852875618971609E-02   0.209725845629696E+00   0.849942343138903E-03  -0.247639530328472E-07
  0.105520995546043E-04
    0.400000000000000E+02   0.000000000000000E+00   0.818210465800899E-02   0.209725617566102E+00   0.832187743567210E-03  -0.255019440323673E-07
  0.919995320917366E-05
    0.400000000000000E+02   0.000000000000000E+00   0.784920248663106E-02   0.209725129354448E+00   0.813952851017543E-03  -0.259832260586821E-07
  0.786888762419810E-05
    0.400000000000000E+02   0.000000000000000E+00   0.752950432991907E-02   0.209724402994315E+00   0.795239592417810E-03  -0.261747370617225E-07
  0.657305104227953E-05
    0.400000000000000E+02   0.000000000000000E+00   0.722248647244464E-02   0.209723463508867E+00   0.776062363152090E-03  -0.260498366037025E-07
  0.532634607207223E-05
    0.400000000000000E+02   0.000000000000000E+00   0.692764597108663E-02   0.209722338394285E+00   0.756448108998834E-03  -0.255903073166311E-07
  0.414199052743792E-05
    0.400000000000000E+02   0.000000000000000E+00   0.664449983113196E-02   0.209721056989207E+00   0.736435870141206E-03  -0.247880453503943E-07
  0.303207899716950E-05
    0.400000000000000E+02   0.000000000000000E+00   0.637258421505490E-02   0.209719649782251E+00   0.716075797256370E-03  -0.236463394274785E-07
  0.200716846221857E-05
    0.400000000000000E+02   0.000000000000000E+00   0.611145368267891E-02   0.209718147674635E+00   0.695427689641866E-03  -0.221805791693783E-07
  0.107591338441143E-05
    0.400000000000000E+02   0.000000000000000E+00   0.586068046147621E-02   0.209716581227662E+00   0.674559141882346E-03  -0.204182226054026E-07
  0.244775127639208E-06
    0.400000000000000E+02   0.000000000000000E+00   0.561985374580959E-02   0.209714979922772E+00   0.653543414617821E-03  -0.183979691257214E-07
 -0.482173093068770E-06
    0.400000000000000E+02   0.000000000000000E+00   0.538857902396883E-02   0.209713371471736E+00   0.632457162155765E-03  -0.161681528017560E-07
 -0.110333106367919E-05
    0.400000000000000E+02   0.000000000000000E+00   0.516647743189893E-02   0.209711781205800E+00   0.611378151781003E-03  -0.137845196374321E-07
 -0.161954013980229E-05
    0.400000000000000E+02   0.000000000000000E+00   0.495318513256173E-02   0.209710231576810E+00   0.590383101765282E-03  -0.113073904357066E-07
 -0.203393897502711E-05
    0.400000000000000E+02   0.000000000000000E+00   0.474835271991414E-02   0.209708741790966E+00   0.569545747343357E-03  -0.879869896179134E-08
 -0.235171887813178E-05
    0.400000000000000E+02   0.000000000000000E+00   0.455164464652654E-02   0.209707327584706E+00   0.548935214490499E-03  -0.631901859909288E-08
 -0.257979891981427E-05
    0.400000000000000E+02   0.000000000000000E+00   0.436273867390377E-02   0.209706001152933E+00   0.528614749178073E-03  -0.392466799136209E-08
 -0.272644611771138E-05
    0.400000000000000E+02   0.000000000000000E+00   0.418132534460823E-02   0.209704771212537E+00   0.508640819240597E-03  -0.166543375738802E-08
 -0.280086831020620E-05
    0.400000000000000E+02   0.000000000000000E+00   0.400710747532036E-02   0.209703643192308E+00   0.489062578330368E-03   0.417097308699717E-09
 -0.281280672750647E-05
    0.400000000000000E+02   0.000000000000000E+00   0.383979967000603E-02   0.209702619520850E+00   0.469921659514562E-03   0.229073980997698E-08
 -0.277215224466269E-05
    0.400000000000000E+02   0.000000000000000E+00   0.367912785239328E-02   0.209701699991719E+00   0.451252250976890E-03   0.393319629590224E-08
 -0.268860443547965E-05
    0.400000000000000E+02   0.000000000000000E+00   0.352482881699275E-02   0.209700882168777E+00   0.433081398114082E-03   0.533183368536397E-08
 -0.257138671318286E-05
    0.400000000000000E+02   0.000000000000000E+00   0.337664979792596E-02   0.209700161817380E+00   0.415429474285775E-03   0.648303312291867E-08
 -0.242902480578155E-05
    0.400000000000000E+02   0.000000000000000E+00   0.323434805485544E-02   0.209699533324015E+00   0.398310765299916E-03   0.739115149026196E-08
 -0.226919020928370E-05
    0.400000000000000E+02   0.000000000000000E+00   0.309769047533817E-02   0.209698990100013E+00   0.381734118907077E-03   0.806721617975724E-08
 -0.209860560295686E-05
    0.400000000000000E+02   0.000000000000000E+00   0.296645319295112E-02   0.209698524939863E+00   0.365703618689895E-03   0.852747913540348E-08
 -0.192300573423968E-05
    0.400000000000000E+02   0.000000000000000E+00   0.284042122056305E-02   0.209698130340570E+00   0.350219250524854E-03   0.879202640507748E-08
 -0.174714501966911E-05
    0.400000000000000E+02   0.000000000000000E+00   0.271938809815215E-02   0.209697798762000E+00   0.335277538318263E-03   0.888336054715060E-08
 -0.157484205328050E-05
    0.400000000000000E+02   0.000000000000000E+00   0.260315555459228E-02   0.209697522841038E+00   0.320872133367602E-03   0.882518293987850E-08
 -0.140905115303144E-05
    0.400000000000000E+02   0.000000000000000E+00   0.249153318285397E-02   0.209697295551147E+00   0.306994348119314E-03   0.864136372264928E-08
 -0.125195161271305E-05
    0.400000000000000E+02   0.000000000000000E+00   0.238433812808804E-02   0.209697110318455E+00   0.293633630179831E-03   0.835504657991124E-08
 -0.110504660412446E-05
    0.400000000000000E+02   0.000000000000000E+00   0.228139478808079E-02   0.209696961096039E+00   0.280777976248823E-03   0.798805924981368E-08
 -0.969264942526281E-06
    0.400000000000000E+02   0.000000000000000E+00   0.218253452559026E-02   0.209696842405631E+00   0.268414288297587E-03   0.756042500841971E-08
 -0.845060480277761E-06
    0.400000000000000E+02   0.000000000000000E+00   0.208759539209207E-02   0.209696749350367E+00   0.256528676028508E-03   0.709009155167222E-08
 -0.732505383762212E-06
    0.400000000000000E+02   0.000000000000000E+00   0.199642186248254E-02   0.209696677607322E+00   0.245106710632134E-03   0.659281841343310E-08
 -0.631374827690748E-06
    0.400000000000000E+02   0.000000000000000E+00   0.190886458030428E-02   0.209696623403211E+00   0.234133635267329E-03   0.608207494589839E-08
 -0.541221652505372E-06
    0.400000000000000E+02   0.000000000000000E+00   0.182478011307705E-02   0.209696583479683E+00   0.223594537708476E-03   0.556911916282041E-08
 -0.461440474669477E-06
    0.400000000000000E+02   0.000000000000000E+00   0.174403071733300E-02   0.209696555052162E+00   0.213474490369008E-03   0.506324407376675E-08
 -0.391321381445074E-06
    0.400000000000000E+02   0.000000000000000E+00   0.166648411297134E-02   0.209696535763739E+00   0.203758662517863E-03   0.457184908199177E-08
 -0.330093800097314E-06
    0.400000000000000E+02   0.000000000000000E+00   0.159201326656297E-02   0.209696523638976E+00   0.194432409029442E-03   0.410059363324354E-08
 -0.276961434535109E-06
    0.400000000000000E+02   0.000000000000000E+00   0.152049618324991E-02   0.209696517037919E+00   0.185481339502298E-03   0.365366453716986E-08
 -0.231129302560432E-06
    0.400000000000000E+02   0.000000000000000E+00   0.145181570689866E-02   0.209696514612989E+00   0.176891371086877E-03   0.323397595011325E-08
 -0.191823986939056E-06
    0.400000000000000E+02   0.000000000000000E+00   0.138585932818021E-02   0.209696515267635E+00   0.168648767890991E-03   0.284336112548219E-08
 -0.158308137298071E-06
    0.400000000000000E+02   0.000000000000000E+00   0.132251900026224E-02   0.209696518119974E+00   0.160740169403424E-03   0.248275299180473E-08
 -0.129890268898843E-06
    0.400000000000000E+02   0.000000000000000E+00   0.126169096181150E-02   0.209696522468669E+00   0.153152609995004E-03   0.215234613213793E-08
 -0.105930793174123E-06
    0.400000000000000E+02   0.000000000000000E+00   0.120327556701665E-02   0.209696527764271E+00   0.145873531219763E-03   0.185174628228774E-08
 -0.858450717628963E-07
    0.400000000000000E+02   0.000000000000000E+00   0.114717712235281E-02   0.209696533582039E+00   0.138890788348627E-03   0.158010650353745E-08
 -0.691041634126619E-07
    0.400000000000000E+02   0.000000000000000E+00   0.109330372982069E-02   0.209696539601116E+00   0.132192652320097E-03   0.133623033482275E-08
 -0.552338840989670E-07
    0.400000000000000E+02   0.000000000000000E+00   0.104156713640332E-02   0.209696545583433E+00   0.125767808082178E-03   0.111866996648785E-08
 -0.438126484965333E-07
    0.400000000000000E+02   0.000000000000000E+00   0.991882589493856E-03   0.209696551359388E+00   0.119605350122974E-03   0.925805910797525E-09
 -0.344684737743187E-07
    0.400000000000000E+02   0.000000000000000E+00   0.944168698057582E-03   0.209696556811843E+00   0.113694775839786E-03   0.755913480953559E-09
 -0.268754607856180E-07
    0.400000000000000E+02   0.000000000000000E+00   0.898347299300723E-03   0.209696561867012E+00   0.108025977273971E-03   0.607216459978009E-09
 -0.207499888605615E-07
    0.400000000000000E+02   0.000000000000000E+00   0.854343330627589E-03   0.209696566482349E+00   0.102589231637664E-03   0.477930030941425E-09
 -0.158468085750356E-07
    0.400000000000000E+02   0.000000000000000E+00   0.812084706676346E-03   0.209696570641472E+00   0.973751909750935E-04   0.366294371549269E-09
 -0.119551650943068E-07
    0.400000000000000E+02   0.000000000000000E+00   0.771502201231946E-03   0.209696574344867E+00   0.923748712331300E-04   0.270600964356677E-09
 -0.889505169562119E-08
    0.400000000000000E+02   0.000000000000000E+00   0.732529333822801E-03   0.209696577607856E+00   0.875796409599426E-04   0.189212086300724E-09
 -0.651365740738166E-08
    0.400000000000000E+02   0.000000000000000E+00   0.695102260815401E-03   0.209696580453237E+00   0.829812098054481E-04   0.120575263494113E-09
 -0.468205426976349E-08
    0.400000000000000E+02   0.000000000000000E+00   0.659159670828486E-03   0.209696582911494E+00   0.785716169604746E-04   0.632326969885843E-10
 -0.329214500744810E-08
    0.400000000000000E+02   0.000000000000000E+00   0.624642684295448E-03   0.209696585014702E+00   0.743432196419545E-04   0.158272817644075E-10
 -0.225388559643385E-08
    0.400000000000000E+02   0.000000000000000E+00   0.591494757010417E-03   0.209696586798361E+00   0.702886817075732E-04  -0.228946585208557E-10
 -0.149277791557831E-08
    0.400000000000000E+02   0.000000000000000E+00   0.559661587500038E-03   0.209696588296076E+00   0.664009624641632E-04  -0.540827821242781E-10
 -0.947630412282933E-09
    0.400000000000000E+02   0.000000000000000E+00   0.529091028069187E-03   0.209696589542544E+00   0.626733057188518E-04  -0.787842115798519E-10
 -0.568568440240796E-09
    0.400000000000000E+02   0.000000000000000E+00   0.499732999374920E-03   0.209696590568674E+00   0.590992291098883E-04  -0.979463369638590E-10
 -0.315284654747560E-09
    0.400000000000000E+02   0.000000000000000E+00   0.471539408388698E-03   0.209696591405368E+00   0.556725137445217E-04  -0.112420763822589E-09
 -0.155505037771490E-09
    0.400000000000000E+02   0.000000000000000E+00   0.444464069612508E-03   0.209696592078873E+00   0.523871941639539E-04  -0.122967907163861E-09
 -0.636586879986766E-10
    0.400000000000000E+02   0.000000000000000E+00   0.418462629419817E-03   0.209696592615085E+00   0.492375486497691E-04  -0.130262254438378E-09
 -0.197252294258300E-10
    0.400000000000000E+02   0.000000000000000E+00   0.393492493397414E-03   0.209696593035000E+00   0.462180898821492E-04  -0.134897838146672E-09
 -0.824872022275486E-11
    0.400000000000000E+02   0.000000000000000E+00   0.369512756569122E-03   0.209696593359353E+00   0.433235559573645E-04  -0.137394064003024E-09
 -0.174925416403708E-10
    0.400000000000000E+02   0.000000000000000E+00   0.346484136387069E-03   0.209696593604092E+00   0.405489017704090E-04  -0.138201581934257E-09
 -0.387263636213888E-10
    0.400000000000000E+02   0.000000000000000E+00   0.324368908380747E-03   0.209696593785204E+00   0.378892907680884E-04  -0.137708144318159E-09
 -0.656215860611138E-10
    0.400000000000000E+02   0.000000000000000E+00   0.303130844358449E-03   0.209696593914197E+00   0.353400870784663E-04  -0.136244473247396E-09
 -0.937488617624811E-10
    0.400000000000000E+02   0.000000000000000E+00   0.282735153059844E-03   0.209696594002991E+00   0.328968480243434E-04  -0.134089663940044E-09
 -0.120157193599924E-09
    0.400000000000000E+02   0.000000000000000E+00   0.263148423162465E-03   0.209696594059417E+00   0.305553170316712E-04  -0.131476514141267E-09
 -0.143029984001191E-09
    0.400000000000000E+02   0.000000000000000E+00   0.244338568548754E-03   0.209696594092091E+00   0.283114169487933E-04  -0.128596326347703E-09
 -0.161401167962129E-09
    0.400000000000000E+02   0.000000000000000E+00   0.226274775744000E-03   0.209696594105942E+00   0.261612437998152E-04  -0.125603327403514E-09
 -0.174927925192975E-09