title="sliced surface data"
variables="x","y","z","cp","cfx","cfy","cfz"
zone t="xslice 0.4000000E+02 loop 1", i=97, f=point,  solutiontime=  0.949400000000E+04, strandid=1
    0.400000000000000E+02   0.000000000000000E+00   0.500000000000000E+00   0.207220821272869E+00   0.187453375435753E-02   0.122605865650584E-07
  0.127426717752125E-04
    0.400000000000000E+02   0.000000000000000E+00   0.461106829675924E+00   0.207388675989929E+00   0.190331586163004E-02   0.787312393099420E-08
  0.225119944049952E-04
    0.400000000000000E+02   0.000000000000000E+00   0.425237740045602E+00   0.207690968519806E+00   0.197252677619852E-02   0.150140644091653E-08
  0.383831654724174E-04
    0.400000000000000E+02   0.000000000000000E+00   0.392157598206102E+00   0.207956148088773E+00   0.204489303651413E-02  -0.635530539734729E-10
  0.463278511677114E-04
    0.400000000000000E+02   0.000000000000000E+00   0.361649553664141E+00   0.208155414564418E+00   0.209884646940490E-02   0.286268877392145E-09
  0.496749469623940E-04
    0.400000000000000E+02   0.000000000000000E+00   0.333513616814471E+00   0.208307740467832E+00   0.213155616244879E-02   0.418313800513526E-09
  0.512205329201813E-04
    0.400000000000000E+02   0.000000000000000E+00   0.307565347946573E+00   0.208430180017306E+00   0.214727630131428E-02   0.332517133089404E-09
  0.521714321101500E-04
    0.400000000000000E+02   0.000000000000000E+00   0.283634648185686E+00   0.208532889451300E+00   0.215050015461001E-02   0.224275218125676E-09
  0.528589992513901E-04
    0.400000000000000E+02   0.000000000000000E+00   0.261564644442424E+00   0.208621700962282E+00   0.214450190022728E-02   0.128378330750302E-09
  0.533451893695402E-04
    0.400000000000000E+02   0.000000000000000E+00   0.241210661061472E+00   0.208700312935615E+00   0.213157388113214E-02   0.440078232725413E-10
  0.536494115484462E-04
    0.400000000000000E+02   0.000000000000000E+00   0.222439271428222E+00   0.208771234961193E+00   0.211338568677432E-02  -0.347186333519820E-10
  0.537951770774726E-04
    0.400000000000000E+02   0.000000000000000E+00   0.205127423316318E+00   0.208836233854892E+00   0.209119520434137E-02  -0.112321618863473E-09
  0.538074323706798E-04
    0.400000000000000E+02   0.000000000000000E+00   0.189161632242501E+00   0.208896544960746E+00   0.206595980956657E-02  -0.193390067960074E-09
  0.537064609022909E-04
    0.400000000000000E+02   0.000000000000000E+00   0.174437237540964E+00   0.208953015407139E+00   0.203840586613859E-02  -0.281439844050531E-09
  0.535063198149831E-04
    0.400000000000000E+02   0.000000000000000E+00   0.160857716280523E+00   0.209006210487765E+00   0.200908162604036E-02  -0.378885394738249E-09
  0.532162690039780E-04
    0.400000000000000E+02   0.000000000000000E+00   0.148334050527150E+00   0.209056499495656E+00   0.197840058621827E-02  -0.486946353806929E-09
  0.528428864714430E-04
    0.400000000000000E+02   0.000000000000000E+00   0.136784143804069E+00   0.209104122008340E+00   0.194667663070058E-02  -0.605973588280161E-09
  0.523917554438532E-04
    0.400000000000000E+02   0.000000000000000E+00   0.126132282924122E+00   0.209149237255882E+00   0.191415138646690E-02  -0.735768323037094E-09
  0.518684430824087E-04
    0.400000000000000E+02   0.000000000000000E+00   0.116308641666569E+00   0.209191958687822E+00   0.188101461988569E-02  -0.875898162958624E-09
  0.512788837766371E-04
    0.400000000000000E+02   0.000000000000000E+00   0.107248823044758E+00   0.209232376907921E+00   0.184741887941932E-02  -0.102595799097073E-08
  0.506293711550931E-04
    0.400000000000000E+02   0.000000000000000E+00   0.988934371640884E-01   0.209270573646126E+00   0.181348967184952E-02  -0.118577481540105E-08
  0.499263442070985E-04
    0.400000000000000E+02   0.000000000000000E+00   0.911877119030085E-01   0.209306629245844E+00   0.177933234335326E-02  -0.135553346226524E-08
  0.491761032147040E-04
    0.400000000000000E+02   0.000000000000000E+00   0.840811338649290E-01   0.209340625911514E+00   0.174503664570381E-02  -0.153584821804844E-08
  0.483845413423058E-04
    0.400000000000000E+02   0.000000000000000E+00   0.775271172473894E-01   0.209372648300957E+00   0.171067974533027E-02  -0.172779044424624E-08
  0.475569379064812E-04
    0.400000000000000E+02   0.000000000000000E+00   0.714826984578092E-01   0.209402782727911E+00   0.167632822884165E-02  -0.193288016484218E-08
  0.466978317708592E-04
    0.400000000000000E+02   0.000000000000000E+00   0.659082544739388E-01   0.209431115811351E+00   0.164203949180243E-02  -0.215303732072304E-08
  0.458109746533578E-04
    0.400000000000000E+02   0.000000000000000E+00   0.607672431027748E-01   0.209457733147723E+00   0.160786276837756E-02  -0.239052977563993E-08
  0.448993505374223E-04
    0.400000000000000E+02   0.000000000000000E+00   0.560259634352577E-01   0.209482718277181E+00   0.157383996016065E-02  -0.264796081111453E-08
  0.439652363788766E-04
    0.400000000000000E+02   0.000000000000000E+00   0.516533349264589E-01   0.209506152000908E+00   0.154000634701251E-02  -0.292831162497886E-08
  0.430102733384253E-04
    0.400000000000000E+02   0.000000000000000E+00   0.476206936530593E-01   0.209528111978406E+00   0.150639120507291E-02  -0.323509119251182E-08
  0.420355182897073E-04
    0.400000000000000E+02   0.000000000000000E+00   0.439016044125251E-01   0.209548672426449E+00   0.147301829746320E-02  -0.357257219737091E-08
  0.410414575874657E-04
    0.400000000000000E+02   0.000000000000000E+00   0.404716874322339E-01   0.209567903725237E+00   0.143990614112865E-02  -0.394596448967312E-08
  0.400279996905088E-04
    0.400000000000000E+02   0.000000000000000E+00   0.373084585525739E-01   0.209585871839201E+00   0.140706793326850E-02  -0.436115498472608E-08
  0.389945195565063E-04
    0.400000000000000E+02   0.000000000000000E+00   0.343911818363703E-01   0.209602637753858E+00   0.137451112893511E-02  -0.482357183329787E-08
  0.379400757687323E-04
    0.400000000000000E+02   0.000000000000000E+00   0.317007336384459E-01   0.209618257539746E+00   0.134223696926072E-02  -0.533611708378078E-08
  0.368638994528378E-04
    0.400000000000000E+02   0.000000000000000E+00   0.292194772442515E-01   0.209632783888982E+00   0.131024070514923E-02  -0.589709643454099E-08
  0.357660997025518E-04
    0.400000000000000E+02   0.000000000000000E+00   0.269311472557833E-01   0.209646269623190E+00   0.127851354241114E-02  -0.650051392125255E-08
  0.346482477659517E-04
    0.400000000000000E+02   0.000000000000000E+00   0.248207429669017E-01   0.209658772484225E+00   0.124704698238062E-02  -0.714186151273264E-08
  0.335132247575510E-04
    0.400000000000000E+02   0.000000000000000E+00   0.228744300290936E-01   0.209670358882246E+00   0.121583894668858E-02  -0.783125148599673E-08
  0.323636848204653E-04
    0.400000000000000E+02   0.000000000000000E+00   0.210794497630676E-01   0.209681103221694E+00   0.118489915878007E-02  -0.861189783534626E-08
  0.311989001121427E-04
    0.400000000000000E+02   0.000000000000000E+00   0.194240355216910E-01   0.209691080127470E+00   0.115424974533735E-02  -0.957686390956918E-08
  0.300105822602580E-04
    0.400000000000000E+02   0.000000000000000E+00   0.178973355560032E-01   0.209700349751491E+00   0.112391720256778E-02  -0.108738760486619E-07
  0.287791587561624E-04
    0.400000000000000E+02   0.000000000000000E+00   0.164893418786666E-01   0.209708940084117E+00   0.109391436057054E-02  -0.126896321913264E-07
  0.274723917524151E-04
    0.400000000000000E+02   0.000000000000000E+00   0.151908246585350E-01   0.209716832914084E+00   0.106421504830584E-02  -0.152120210898536E-07
  0.260477879555171E-04
    0.400000000000000E+02   0.000000000000000E+00   0.139932717162748E-01   0.209723959876352E+00   0.103472796190495E-02  -0.185780901037477E-07
  0.244590335532663E-04
    0.400000000000000E+02   0.000000000000000E+00   0.128888327244140E-01   0.209730211743296E+00   0.100527790649929E-02  -0.228220725295653E-07
  0.226652314006041E-04
    0.400000000000000E+02   0.000000000000000E+00   0.118702677460337E-01   0.209735459358424E+00   0.975601423578448E-03  -0.278379477239478E-07
  0.206407089005860E-04
    0.400000000000000E+02   0.000000000000000E+00   0.109308997747572E-01   0.209739580638847E+00   0.945360609077736E-03  -0.333650377824361E-07
  0.183830374347363E-04
    0.400000000000000E+02   0.000000000000000E+00   0.100645709649220E-01   0.209742486680012E+00   0.914175143570127E-03  -0.389970204909189E-07
  0.159176004477194E-04
    0.400000000000000E+02   0.000000000000000E+00   0.926560226500915E-02   0.209744141320183E+00   0.881669238964372E-03  -0.442093758971339E-07
  0.132981044270389E-04
    0.400000000000000E+02   0.000000000000000E+00   0.852875618971609E-02   0.209744571515786E+00   0.847527483960210E-03  -0.484012639501155E-07
  0.106032892716532E-04
    0.400000000000000E+02   0.000000000000000E+00   0.784920248663106E-02   0.209743868942581E+00   0.811551140839111E-03  -0.509532877538152E-07
  0.793045259512276E-05
    0.400000000000000E+02   0.000000000000000E+00   0.722248647244464E-02   0.209742184697395E+00   0.773704504896873E-03  -0.513069777221465E-07
  0.538635751191398E-05
    0.400000000000000E+02   0.000000000000000E+00   0.664449983113196E-02   0.209739719056199E+00   0.734140607973582E-03  -0.490674675863022E-07
  0.307605609122073E-05
    0.400000000000000E+02   0.000000000000000E+00   0.611145368267891E-02   0.209736706696218E+00   0.693198265341196E-03  -0.441148112657447E-07
  0.109053598772120E-05
    0.400000000000000E+02   0.000000000000000E+00   0.561985374580959E-02   0.209733397558484E+00   0.651368661267922E-03  -0.366895400738534E-07
 -0.505097425190423E-06
    0.400000000000000E+02   0.000000000000000E+00   0.516647743189893E-02   0.209730033923428E+00   0.609237729838553E-03  -0.274088804101390E-07
 -0.168044248477615E-05
    0.400000000000000E+02   0.000000000000000E+00   0.474835271991414E-02   0.209726826891280E+00   0.567417222196424E-03  -0.171854034140719E-07
 -0.244317617761330E-05
    0.400000000000000E+02   0.000000000000000E+00   0.436273867390377E-02   0.209723936838132E+00   0.526479741391434E-03  -0.705672909432248E-08
 -0.283568503524993E-05
    0.400000000000000E+02   0.000000000000000E+00   0.400710747532036E-02   0.209721462752459E+00   0.486910228168840E-03   0.202362070047311E-08
 -0.292563387200885E-05
    0.400000000000000E+02   0.000000000000000E+00   0.367912785239328E-02   0.209719442703275E+00   0.449079780258375E-03   0.936373718047102E-08
 -0.279306628703379E-05
    0.400000000000000E+02   0.000000000000000E+00   0.337664979792596E-02   0.209717864246152E+00   0.413240725663718E-03   0.146233757689034E-07
 -0.251752549018431E-05
    0.400000000000000E+02   0.000000000000000E+00   0.309769047533817E-02   0.209716680512836E+00   0.379537298277732E-03   0.178015492382811E-07
 -0.216817763826431E-05
    0.400000000000000E+02   0.000000000000000E+00   0.284042122056305E-02   0.209715826970505E+00   0.348024806931168E-03   0.191490161527436E-07
 -0.179840861569882E-05
    0.400000000000000E+02   0.000000000000000E+00   0.260315555459228E-02   0.209715235044460E+00   0.318691203955193E-03   0.190531234941195E-07
 -0.144470101900199E-05
    0.400000000000000E+02   0.000000000000000E+00   0.238433812808804E-02   0.209714841069083E+00   0.291477083865716E-03   0.179358448420278E-07
 -0.112851811202164E-05
    0.400000000000000E+02   0.000000000000000E+00   0.218253452559026E-02   0.209714590862872E+00   0.266292220343289E-03   0.161845323149891E-07
 -0.859656486482400E-06
    0.400000000000000E+02   0.000000000000000E+00   0.199642186248254E-02   0.209714441117412E+00   0.243028216426955E-03   0.141163570740759E-07
 -0.639843985918431E-06
    0.400000000000000E+02   0.000000000000000E+00   0.182478011307705E-02   0.209714358871143E+00   0.221567638158221E-03   0.119681827458588E-07
 -0.465869157113546E-06
    0.400000000000000E+02   0.000000000000000E+00   0.166648411297134E-02   0.209714320050696E+00   0.201790305424621E-03   0.990183748196461E-08
 -0.331965541649253E-06
    0.400000000000000E+02   0.000000000000000E+00   0.152049618324991E-02   0.209714307722122E+00   0.183577438445009E-03   0.801670394848843E-08
 -0.231447744466937E-06
    0.400000000000000E+02   0.000000000000000E+00   0.138585932818021E-02   0.209714310405843E+00   0.166814260674746E-03   0.636436190967220E-08
 -0.157725222154087E-06
    0.400000000000000E+02   0.000000000000000E+00   0.126169096181150E-02   0.209714320625265E+00   0.151391528221464E-03   0.496228851067619E-08
 -0.104855222409637E-06
    0.400000000000000E+02   0.000000000000000E+00   0.114717712235281E-02   0.209714333736977E+00   0.137206333444244E-03   0.380525888427752E-08
 -0.677837846843858E-07
    0.400000000000000E+02   0.000000000000000E+00   0.104156713640332E-02   0.209714347035521E+00   0.124162430522533E-03   0.287421792442302E-08
 -0.423928975684075E-07
    0.400000000000000E+02   0.000000000000000E+00   0.944168698057582E-03   0.209714359093116E+00   0.112170254970337E-03   0.214280229292957E-08
 -0.254388469799837E-07
    0.400000000000000E+02   0.000000000000000E+00   0.854343330627589E-03   0.209714369289439E+00   0.101146754009980E-03   0.158183729992199E-08
 -0.144385146528713E-07
    0.400000000000000E+02   0.000000000000000E+00   0.771502201231946E-03   0.209714377487226E+00   0.910151058971506E-04   0.116226663911653E-08
 -0.753890929234838E-08
    0.400000000000000E+02   0.000000000000000E+00   0.695102260815401E-03   0.209714383815253E+00   0.817043795066384E-04   0.856958225172030E-09
 -0.339011433721704E-08
    0.400000000000000E+02   0.000000000000000E+00   0.624642684295448E-03   0.209714388529717E+00   0.731491673282902E-04   0.641710292246013E-09
 -0.103188375684812E-08
    0.400000000000000E+02   0.000000000000000E+00   0.559661587500038E-03   0.209714391928209E+00   0.652892128889101E-04   0.495667407090422E-09
  0.202071479544354E-09
    0.400000000000000E+02   0.000000000000000E+00   0.499732999374920E-03   0.209714394300788E+00   0.580690456199913E-04   0.401364260527549E-09
  0.761674280088431E-09
    0.400000000000000E+02   0.000000000000000E+00   0.444464069612508E-03   0.209714395905234E+00   0.514376310048555E-04   0.344552912228188E-09
  0.941381579327919E-09
    0.400000000000000E+02   0.000000000000000E+00   0.393492493397414E-03   0.209714396956157E+00   0.453480405502877E-04   0.313907124185822E-09
  0.926711354289280E-09
    0.400000000000000E+02   0.000000000000000E+00   0.346484136387069E-03   0.209714397624507E+00   0.397571441342079E-04   0.300655526680885E-09
  0.828907436390866E-09
    0.400000000000000E+02   0.000000000000000E+00   0.303130844358449E-03   0.209714398040335E+00   0.346253262050895E-04   0.298202267425877E-09
  0.710155680229349E-09
    0.400000000000000E+02   0.000000000000000E+00   0.263148423162465E-03   0.209714398299366E+00   0.299162269547095E-04   0.301751895349498E-09
  0.601473676720449E-09
    0.400000000000000E+02   0.000000000000000E+00   0.226274775744000E-03   0.209714398469143E+00   0.255965099317380E-04   0.307956902644769E-09
  0.515067381867889E-09
    0.400000000000000E+02   0.000000000000000E+00   0.192268184015186E-03   0.209714398595684E+00   0.216356588228340E-04   0.314626324366765E-09
  0.452604697299827E-09
    0.400000000000000E+02   0.000000000000000E+00   0.160905724319076E-03   0.209714398709298E+00   0.180058089487929E-04   0.320471012190487E-09
  0.410508103631782E-09
    0.400000000000000E+02   0.000000000000000E+00   0.131981806096576E-03   0.209714398831203E+00   0.146816250480290E-04   0.324578631977275E-09
  0.383226185754093E-09
    0.400000000000000E+02   0.000000000000000E+00   0.105306824177169E-03   0.209714398971915E+00   0.116402503388868E-04   0.325529215594332E-09
  0.365252462789544E-09
    0.400000000000000E+02   0.000000000000000E+00   0.807059158587669E-04   0.209714399123263E+00   0.886138380974139E-05   0.322295540296808E-09
  0.351623794013448E-09
    0.400000000000000E+02   0.000000000000000E+00   0.580178146289730E-04   0.209714399284422E+00   0.632762365175465E-05   0.319996943665869E-09
  0.334631432505123E-09
    0.400000000000000E+02   0.000000000000000E+00   0.370937930135463E-04   0.209714399669745E+00   0.402542757677991E-05   0.322415919826202E-09
  0.302602751490083E-09
    0.400000000000000E+02   0.000000000000000E+00   0.177966876221130E-04   0.209714401036198E+00   0.194760113519820E-05   0.205722209942856E-09
  0.255991173634828E-09
    0.400000000000000E+02   0.000000000000000E+00   0.000000000000000E+00   0.209714404063299E+00   0.926977540102907E-06   0.770095007309647E-10
  0.229854825525839E-09
zone t="xslice 0.5000000E+02 loop 1", i=97, f=point,  solutiontime=  0.949400000000E+04, strandid=2
    0.500000000000000E+02   0.000000000000000E+00   0.500000000000000E+00   0.293386651925846E+00   0.187998123802645E-02   0.151258860742734E-07
  0.145121479293568E-04
    0.500000000000000E+02   0.000000000000000E+00   0.461106829675924E+00   0.293659488514429E+00   0.191678837270104E-02   0.783704903452837E-08
  0.246894610944710E-04
    0.500000000000000E+02   0.000000000000000E+00   0.425237740045602E+00   0.294053915296989E+00   0.199804291459170E-02  -0.120922130584053E-08
  0.395771385401117E-04
    0.500000000000000E+02   0.000000000000000E+00   0.392157598206102E+00   0.294306054071046E+00   0.206901880885475E-02  -0.119188260704202E-08
  0.444708461710277E-04
    0.500000000000000E+02   0.000000000000000E+00   0.361649553664141E+00   0.294459280201879E+00   0.210926071045138E-02   0.379889909522348E-09
  0.454479803902876E-04
    0.500000000000000E+02   0.000000000000000E+00   0.333513616814471E+00   0.294568826247978E+00   0.212528668614146E-02   0.554190004897304E-09
  0.460287800538174E-04
    0.500000000000000E+02   0.000000000000000E+00   0.307565347946573E+00   0.294658381265374E+00   0.212656711414789E-02   0.459218699537805E-09
  0.469110294488878E-04
    0.500000000000000E+02   0.000000000000000E+00   0.283634648185686E+00   0.294736159578691E+00   0.211869671559597E-02   0.397106012285810E-09
  0.479334285765652E-04
    0.500000000000000E+02   0.000000000000000E+00   0.261564644442424E+00   0.294806019222828E+00   0.210458764292873E-02   0.345571208473689E-09
  0.489044135395804E-04
    0.500000000000000E+02   0.000000000000000E+00   0.241210661061472E+00   0.294870216979550E+00   0.208592337893567E-02   0.277122182073705E-09
  0.497327138802418E-04
    0.500000000000000E+02   0.000000000000000E+00   0.222439271428222E+00   0.294930269853540E+00   0.206382714806222E-02   0.190624869496645E-09
  0.503887172525033E-04
    0.500000000000000E+02   0.000000000000000E+00   0.205127423316318E+00   0.294987118535298E+00   0.203910649537238E-02   0.866959260246127E-10
  0.508672028254653E-04
    0.500000000000000E+02   0.000000000000000E+00   0.189161632242501E+00   0.295041304817214E+00   0.201235271700870E-02  -0.326894202453731E-10
  0.511709291987860E-04
    0.500000000000000E+02   0.000000000000000E+00   0.174437237540964E+00   0.295093098444652E+00   0.198400127112456E-02  -0.166026312385877E-09
  0.513062979277185E-04
    0.500000000000000E+02   0.000000000000000E+00   0.160857716280523E+00   0.295142610644238E+00   0.195437765346488E-02  -0.311289718178129E-09
  0.512826474795828E-04
    0.500000000000000E+02   0.000000000000000E+00   0.148334050527150E+00   0.295189870167778E+00   0.192373168701644E-02  -0.466480961619138E-09
  0.511119364567719E-04
    0.500000000000000E+02   0.000000000000000E+00   0.136784143804069E+00   0.295234873752677E+00   0.189226181265483E-02  -0.629683633397364E-09
  0.508080571214134E-04
    0.500000000000000E+02   0.000000000000000E+00   0.126132282924122E+00   0.295277614971546E+00   0.186013141148213E-02  -0.799328388501785E-09
  0.503859574931402E-04
    0.500000000000000E+02   0.000000000000000E+00   0.116308641666569E+00   0.295318099663694E+00   0.182747922094280E-02  -0.974284113758001E-09
  0.498607887986978E-04
    0.500000000000000E+02   0.000000000000000E+00   0.107248823044758E+00   0.295356352264446E+00   0.179442577533209E-02  -0.115392434228462E-08
  0.492472046645367E-04
    0.500000000000000E+02   0.000000000000000E+00   0.988934371640884E-01   0.295392416763851E+00   0.176107732310055E-02  -0.133813246443150E-08
  0.485588495870383E-04
    0.500000000000000E+02   0.000000000000000E+00   0.911877119030085E-01   0.295426354652229E+00   0.172752821559942E-02  -0.152728338992154E-08
  0.478080305273327E-04
    0.500000000000000E+02   0.000000000000000E+00   0.840811338649290E-01   0.295458241475379E+00   0.169386240932326E-02  -0.172220953308660E-08
  0.470055426374988E-04
    0.500000000000000E+02   0.000000000000000E+00   0.775271172473894E-01   0.295488162941563E+00   0.166015447539521E-02  -0.192417210104358E-08
  0.461606146869365E-04
    0.500000000000000E+02   0.000000000000000E+00   0.714826984578092E-01   0.295516211183545E+00   0.162647034677769E-02  -0.213483053009883E-08
  0.452809415560575E-04
    0.500000000000000E+02   0.000000000000000E+00   0.659082544739388E-01   0.295542481467284E+00   0.159286793085097E-02  -0.235620964658381E-08
  0.443727757779296E-04
    0.500000000000000E+02   0.000000000000000E+00   0.607672431027748E-01   0.295567069485126E+00   0.155939765251357E-02  -0.259067802086063E-08
  0.434410552157164E-04
    0.500000000000000E+02   0.000000000000000E+00   0.560259634352577E-01   0.295590069260529E+00   0.152610295849298E-02  -0.284094414629042E-08
  0.424895483738742E-04
    0.500000000000000E+02   0.000000000000000E+00   0.516533349264589E-01   0.295611571627047E+00   0.149302079648576E-02  -0.311007451437762E-08
  0.415210007580301E-04
    0.500000000000000E+02   0.000000000000000E+00   0.476206936530593E-01   0.295631663201119E+00   0.146018207188605E-02  -0.340156327950749E-08
  0.405372654573957E-04
    0.500000000000000E+02   0.000000000000000E+00   0.439016044125251E-01   0.295650425726802E+00   0.142761206817132E-02  -0.371948892718490E-08
  0.395394024108856E-04
    0.500000000000000E+02   0.000000000000000E+00   0.404716874322339E-01   0.295667935633881E+00   0.139533078513684E-02  -0.406871240775667E-08
  0.385277412445702E-04
    0.500000000000000E+02   0.000000000000000E+00   0.373084585525739E-01   0.295684263651589E+00   0.136335310907705E-02  -0.445496381983455E-08
  0.375019303557579E-04
    0.500000000000000E+02   0.000000000000000E+00   0.343911818363703E-01   0.295699474406731E+00   0.133168872176998E-02  -0.488451842449660E-08
  0.364610383377581E-04
    0.500000000000000E+02   0.000000000000000E+00   0.317007336384459E-01   0.295713626179130E+00   0.130034175425873E-02  -0.536308914391481E-08
  0.354038072157443E-04
    0.500000000000000E+02   0.000000000000000E+00   0.292194772442515E-01   0.295726771318537E+00   0.126931045300902E-02  -0.589394809189927E-08
  0.343291289573968E-04
    0.500000000000000E+02   0.000000000000000E+00   0.269311472557833E-01   0.295738958002974E+00   0.123858749236246E-02  -0.647622352701770E-08
  0.332366783803405E-04
    0.500000000000000E+02   0.000000000000000E+00   0.248207429669017E-01   0.295750233692564E+00   0.120816178766058E-02  -0.710554623362683E-08
  0.321273953620203E-04
    0.500000000000000E+02   0.000000000000000E+00   0.228744300290936E-01   0.295760649619638E+00   0.117802235169795E-02  -0.777987607709254E-08
  0.310032812946822E-04
    0.500000000000000E+02   0.000000000000000E+00   0.210794497630676E-01   0.295770264218315E+00   0.114816363934813E-02  -0.851213227425000E-08
  0.298659588619863E-04
    0.500000000000000E+02   0.000000000000000E+00   0.194240355216910E-01   0.295779142537864E+00   0.111859017648422E-02  -0.934776290828788E-08
  0.287138098048458E-04
    0.500000000000000E+02   0.000000000000000E+00   0.178973355560032E-01   0.295787349189126E+00   0.108931693121978E-02  -0.103806894923794E-07
  0.275382289649123E-04
    0.500000000000000E+02   0.000000000000000E+00   0.164893418786666E-01   0.295794934973132E+00   0.106036197476398E-02  -0.117578564587345E-07
  0.263203136692711E-04
    0.500000000000000E+02   0.000000000000000E+00   0.151908246585350E-01   0.295801920649541E+00   0.103173009823285E-02  -0.136638674383640E-07
  0.250296868184248E-04
    0.500000000000000E+02   0.000000000000000E+00   0.139932717162748E-01   0.295808283925784E+00   0.100338966931154E-02  -0.162836292832957E-07
  0.236267886858414E-04
    0.500000000000000E+02   0.000000000000000E+00   0.128888327244140E-01   0.295813955738192E+00   0.975248547229311E-03  -0.197499836753121E-07
  0.220688968101598E-04
    0.500000000000000E+02   0.000000000000000E+00   0.118702677460337E-01   0.295818829008181E+00   0.947136598301559E-03  -0.240903386962659E-07
  0.203187943815662E-04
    0.500000000000000E+02   0.000000000000000E+00   0.109308997747572E-01   0.295822778619736E+00   0.918801485964406E-03  -0.291873500622879E-07
  0.183540287029484E-04
    0.500000000000000E+02   0.000000000000000E+00   0.100645709649220E-01   0.295825687443730E+00   0.889921512889574E-03  -0.347633142475188E-07
  0.161745132354085E-04
    0.500000000000000E+02   0.000000000000000E+00   0.926560226500915E-02   0.295827471681526E+00   0.860135694440327E-03  -0.403897783258705E-07
  0.138068281369821E-04
    0.500000000000000E+02   0.000000000000000E+00   0.852875618971609E-02   0.295828099878214E+00   0.829088007997281E-03  -0.455177625828297E-07
  0.113045709202226E-04
    0.500000000000000E+02   0.000000000000000E+00   0.784920248663106E-02   0.295827602815861E+00   0.796480138777976E-03  -0.495237764888618E-07
  0.874497992971419E-05
    0.500000000000000E+02   0.000000000000000E+00   0.722248647244464E-02   0.295826074573940E+00   0.762124786992868E-03  -0.517715198295782E-07
  0.622247064755127E-05
    0.500000000000000E+02   0.000000000000000E+00   0.664449983113196E-02   0.295823666665191E+00   0.725989815366869E-03  -0.516940190426105E-07
  0.383972808929556E-05
    0.500000000000000E+02   0.000000000000000E+00   0.611145368267891E-02   0.295820577434391E+00   0.688223136159459E-03  -0.488975053985702E-07
  0.169694202276957E-05
    0.500000000000000E+02   0.000000000000000E+00   0.561985374580959E-02   0.295817037280210E+00   0.649150602700325E-03  -0.432740758959892E-07
 -0.119951753832492E-06
    0.500000000000000E+02   0.000000000000000E+00   0.516647743189893E-02   0.295813290091089E+00   0.609244836603063E-03  -0.350901685682003E-07
 -0.155047715752726E-05
    0.500000000000000E+02   0.000000000000000E+00   0.474835271991414E-02   0.295809570997272E+00   0.569070432298902E-03  -0.250069700149649E-07
 -0.256802167728601E-05
    0.500000000000000E+02   0.000000000000000E+00   0.436273867390377E-02   0.295806083584105E+00   0.529217553889467E-03  -0.140010377060182E-07
 -0.318311698234088E-05
    0.500000000000000E+02   0.000000000000000E+00   0.400710747532036E-02   0.295802980368555E+00   0.490238776035117E-03  -0.318851441851894E-08
 -0.344024641168309E-05
    0.500000000000000E+02   0.000000000000000E+00   0.367912785239328E-02   0.295800352010473E+00   0.452601520764607E-03   0.639861994156310E-08
 -0.340866251671588E-05
    0.500000000000000E+02   0.000000000000000E+00   0.337664979792596E-02   0.295798227367772E+00   0.416662150282538E-03   0.140104019659359E-07
 -0.316960316118387E-05
    0.500000000000000E+02   0.000000000000000E+00   0.309769047533817E-02   0.295796584092105E+00   0.382661009541147E-03   0.192855954274921E-07
 -0.280332427714346E-05
    0.500000000000000E+02   0.000000000000000E+00   0.284042122056305E-02   0.295795365292054E+00   0.350732990204388E-03   0.222437670346193E-07
 -0.237903542806249E-05
    0.500000000000000E+02   0.000000000000000E+00   0.260315555459228E-02   0.295794497250632E+00   0.320926563437103E-03   0.231882680218456E-07
 -0.194938394683564E-05
    0.500000000000000E+02   0.000000000000000E+00   0.238433812808804E-02   0.295793903788153E+00   0.293225159383271E-03   0.225734336943678E-07
 -0.154940305719559E-05
    0.500000000000000E+02   0.000000000000000E+00   0.218253452559026E-02   0.295793515538745E+00   0.267566897351597E-03   0.208859812525912E-07
 -0.119862906555303E-05
    0.500000000000000E+02   0.000000000000000E+00   0.199642186248254E-02   0.295793274410978E+00   0.243860787403899E-03   0.185654572780830E-07
 -0.904744697390241E-06
    0.500000000000000E+02   0.000000000000000E+00   0.182478011307705E-02   0.295793134635218E+00   0.221999018699331E-03   0.159653736153150E-07
 -0.667426376583929E-06
    0.500000000000000E+02   0.000000000000000E+00   0.166648411297134E-02   0.295793061841425E+00   0.201865747885190E-03   0.133441482517333E-07
 -0.481635041351862E-06
    0.500000000000000E+02   0.000000000000000E+00   0.152049618324991E-02   0.295793031257230E+00   0.183343090423821E-03   0.108734285935961E-07
 -0.340075328554865E-06
    0.500000000000000E+02   0.000000000000000E+00   0.138585932818021E-02   0.295793025695018E+00   0.166315025324809E-03   0.865407967158669E-08
 -0.234843492498458E-06
    0.500000000000000E+02   0.000000000000000E+00   0.126169096181150E-02   0.295793033682378E+00   0.150669813345943E-03   0.673377870821339E-08
 -0.158415925003731E-06
    0.500000000000000E+02   0.000000000000000E+00   0.114717712235281E-02   0.295793047887197E+00   0.136301391217077E-03   0.512301561395079E-08
 -0.104159678049099E-06
    0.500000000000000E+02   0.000000000000000E+00   0.104156713640332E-02   0.295793063869902E+00   0.123110079737813E-03   0.380818817193115E-08
 -0.665266843835901E-07
    0.500000000000000E+02   0.000000000000000E+00   0.944168698057582E-03   0.295793079141767E+00   0.111002844039315E-03   0.276160206647152E-08
 -0.410568294989502E-07
    0.500000000000000E+02   0.000000000000000E+00   0.854343330627589E-03   0.295793092478381E+00   0.998932699592157E-04   0.194866889097474E-08
 -0.242781624713682E-07
    0.500000000000000E+02   0.000000000000000E+00   0.771502201231946E-03   0.295793103436718E+00   0.897013671633636E-04   0.133277229424195E-08