variables="u/ucl","2z/D"
zone, t="USM3D, Grid 1, vert40"
 2.393204486E-04 0.000000000E+00
 1.116989106E-01 1.001000986E-03
 2.204708308E-01 2.002001973E-03
 3.117931485E-01 3.003003076E-03
 3.730365634E-01 4.004003946E-03
 4.106408358E-01 5.005004816E-03
 4.352940619E-01 6.006006151E-03
 4.531267881E-01 7.007007021E-03
 4.670876563E-01 8.008007891E-03
 4.786276519E-01 9.009009227E-03
 4.885280728E-01 1.001000963E-02
 4.972434342E-01 1.101101097E-02
 5.050571561E-01 1.201201230E-02
 5.121614933E-01 1.301301271E-02
 5.186851025E-01 1.401401404E-02
 5.247259140E-01 1.501501538E-02
 5.303586125E-01 1.601601578E-02
 5.356372595E-01 1.701701619E-02
 5.406087637E-01 1.801801845E-02
 5.453090668E-01 1.901901886E-02
 5.497686863E-01 2.002001926E-02
 5.540130138E-01 2.102102153E-02
 5.580622554E-01 2.202202193E-02
 5.619363785E-01 2.302302234E-02
 5.656487346E-01 2.402402461E-02
 5.692148805E-01 2.502502501E-02
 5.726462007E-01 2.602602541E-02
 5.759522319E-01 2.702702768E-02
 5.791445374E-01 2.802802809E-02
 5.822290778E-01 2.902902849E-02
 5.852153897E-01 3.003003076E-02
 5.881089568E-01 3.103103116E-02
 5.909152031E-01 3.203203157E-02
 5.936407447E-01 3.303303197E-02
 5.962902904E-01 3.403403237E-02
 5.988679528E-01 3.503503650E-02
 6.013774872E-01 3.603603691E-02
 6.038239002E-01 3.703703731E-02
 6.062107682E-01 3.803803772E-02
 6.085388660E-01 3.903903812E-02
 6.108147502E-01 4.004003853E-02
 6.130373478E-01 4.104104266E-02
 6.152121425E-01 4.204204306E-02
 6.173409224E-01 4.304304346E-02
 6.194238663E-01 4.404404387E-02
 6.214650273E-01 4.504504427E-02
 6.234661341E-01 4.604604468E-02
 6.254286170E-01 4.704704881E-02
 6.273541451E-01 4.804804921E-02
 6.292440891E-01 4.904904962E-02
 6.310999990E-01 5.005005002E-02
 6.329231858E-01 5.105105042E-02
 6.347150803E-01 5.205205083E-02
 6.364770532E-01 5.305305123E-02
 6.382101774E-01 5.405405536E-02
 6.399157643E-01 5.505505577E-02
 6.415943503E-01 5.605605617E-02
 6.432461739E-01 5.705705658E-02
 6.448737979E-01 5.805805698E-02
 6.464780569E-01 5.905905738E-02
 6.480575800E-01 6.006006151E-02
 6.496154070E-01 6.106106192E-02
 6.511520147E-01 6.206206232E-02
 6.526664495E-01 6.306306273E-02
 6.541621685E-01 6.406406313E-02
 6.556362510E-01 6.506506354E-02
 6.570931673E-01 6.606606394E-02
 6.585296988E-01 6.706706434E-02
 6.599502563E-01 6.806806475E-02
 6.613515615E-01 6.906907260E-02
 6.627373099E-01 7.007007301E-02
 6.641061306E-01 7.107107341E-02
 6.654587388E-01 7.207207382E-02
 6.667970419E-01 7.307307422E-02
 6.681188941E-01 7.407407463E-02
 6.694265008E-01 7.507507503E-02
 6.707206964E-01 7.607607543E-02
 6.720001101E-01 7.707707584E-02
 6.732659340E-01 7.807807624E-02
 6.745191216E-01 7.907907665E-02
 6.757600307E-01 8.008007705E-02
 6.769873500E-01 8.108107746E-02
 6.782026291E-01 8.208208531E-02
 6.794062257E-01 8.308308572E-02
 6.805984974E-01 8.408408612E-02
 6.817797422E-01 8.508508652E-02
 6.829495430E-01 8.608608693E-02
 6.841080785E-01 8.708708733E-02
 6.852563024E-01 8.808808774E-02
 6.863942742E-01 8.908908814E-02
 6.875222921E-01 9.009008855E-02
 6.886405349E-01 9.109108895E-02
 6.897492409E-01 9.209208935E-02
 6.908485293E-01 9.309308976E-02
 6.919386387E-01 9.409409761E-02
 6.930197477E-01 9.509509802E-02
 6.940919757E-01 9.609609842E-02
 6.951555610E-01 9.709709883E-02
 6.962106228E-01 9.809809923E-02
 6.972573996E-01 9.909909964E-02
 6.982960701E-01 1.001001000E-01
 6.993266940E-01 1.011011004E-01
 7.003495693E-01 1.021021008E-01
 7.013646960E-01 1.031031013E-01
 7.023723722E-01 1.041041017E-01
 7.033726573E-01 1.051051021E-01
 7.043657899E-01 1.061061025E-01
 7.053518891E-01 1.071071103E-01
 7.063311338E-01 1.081081107E-01
 7.073035836E-01 1.091091111E-01
 7.082694769E-01 1.101101115E-01
 7.092288136E-01 1.111111119E-01
 7.101818919E-01 1.121121123E-01
 7.111281753E-01 1.131131127E-01
 7.120679021E-01 1.141141132E-01
 7.130017281E-01 1.151151136E-01
 7.139295936E-01 1.161161140E-01
 7.148517966E-01 1.171171144E-01
 7.157683969E-01 1.181181148E-01
 7.166795135E-01 1.191191226E-01
 7.175840735E-01 1.201201230E-01
 7.184830904E-01 1.211211234E-01
 7.193770409E-01 1.221221238E-01
 7.202659249E-01 1.231231242E-01
 7.211499214E-01 1.241241246E-01
 7.220279574E-01 1.251251251E-01
 7.229006290E-01 1.261261255E-01
 7.237686515E-01 1.271271259E-01
 7.246322632E-01 1.281281263E-01
 7.254911661E-01 1.291291267E-01
 7.263440490E-01 1.301301271E-01
 7.271926403E-01 1.311311275E-01
 7.280371785E-01 1.321321279E-01
 7.288774252E-01 1.331331283E-01
 7.297118306E-01 1.341341287E-01
 7.305423617E-01 1.351351291E-01
 7.313690782E-01 1.361361295E-01
 7.321912646E-01 1.371371299E-01
 7.330085635E-01 1.381381452E-01
 7.338221669E-01 1.391391456E-01
 7.346323133E-01 1.401401460E-01
 7.354370356E-01 1.411411464E-01
 7.362381816E-01 1.421421468E-01
 7.370361686E-01 1.431431472E-01
 7.378294468E-01 1.441441476E-01
 7.386186719E-01 1.451451480E-01
 7.394049764E-01 1.461461484E-01
 7.401870489E-01 1.471471488E-01
 7.409649491E-01 1.481481493E-01
 7.417401075E-01 1.491491497E-01
 7.425112128E-01 1.501501501E-01
 7.432783246E-01 1.511511505E-01
 7.440429330E-01 1.521521509E-01
 7.448032498E-01 1.531531513E-01
 7.455600500E-01 1.541541517E-01
 7.463145852E-01 1.551551521E-01
 7.470643520E-01 1.561561525E-01
 7.478114367E-01 1.571571529E-01
 7.485560179E-01 1.581581533E-01
 7.492958307E-01 1.591591537E-01
 7.500336170E-01 1.601601541E-01
 7.507679462E-01 1.611611545E-01
 7.514987588E-01 1.621621549E-01
 7.522277832E-01 1.631631702E-01
 7.529519796E-01 1.641641706E-01
 7.536743283E-01 1.651651710E-01
 7.543935776E-01 1.661661714E-01
 7.551093102E-01 1.671671718E-01
 7.558236718E-01 1.681681722E-01
 7.565331459E-01 1.691691726E-01
 7.572411895E-01 1.701701730E-01
 7.579457760E-01 1.711711735E-01
 7.586476803E-01 1.721721739E-01
 7.593474984E-01 1.731731743E-01
 7.600435019E-01 1.741741747E-01
 7.607383728E-01 1.751751751E-01
 7.614286542E-01 1.761761755E-01
 7.621179223E-01 1.771771759E-01
 7.628035545E-01 1.781781763E-01
 7.634872198E-01 1.791791767E-01
 7.641682625E-01 1.801801771E-01
 7.648463845E-01 1.811811775E-01
 7.655228972E-01 1.821821779E-01
 7.661958337E-01 1.831831783E-01
 7.668677568E-01 1.841841787E-01
 7.675355077E-01 1.851851791E-01
 7.682027221E-01 1.861861795E-01
 7.688657045E-01 1.871871799E-01
 7.695280313E-01 1.881881952E-01
 7.701866627E-01 1.891891956E-01
 7.708440423E-01 1.901901960E-01
 7.714982629E-01 1.911911964E-01
 7.721511126E-01 1.921921968E-01
 7.728010416E-01 1.931931973E-01
 7.734493017E-01 1.941941977E-01
 7.740949392E-01 1.951951981E-01
 7.747388482E-01 1.961961985E-01
 7.753800750E-01 1.971971989E-01
 7.760197520E-01 1.981981993E-01
 7.766568065E-01 1.991991997E-01
 7.772923112E-01 2.002002001E-01
 7.779251933E-01 2.012012005E-01
 7.785566449E-01 2.022022009E-01
 7.791854143E-01 2.032032013E-01
 7.798128724E-01 2.042042017E-01
 7.804374695E-01 2.052052021E-01
 7.810611725E-01 2.062062025E-01
 7.816817164E-01 2.072072029E-01
 7.823017240E-01 2.082082033E-01
 7.829182148E-01 2.092092037E-01
 7.835347056E-01 2.102102041E-01
 7.841471434E-01 2.112112045E-01
 7.847596407E-01 2.122122049E-01
 7.853686213E-01 2.132132202E-01
 7.859770656E-01 2.142142206E-01
 7.865827680E-01 2.152152210E-01
 7.871872783E-01 2.162162215E-01
 7.877898216E-01 2.172172219E-01
 7.883903384E-01 2.182182223E-01
 7.889897227E-01 2.192192227E-01
 7.895864248E-01 2.202202231E-01
 7.901828289E-01 2.212212235E-01
 7.907756567E-01 2.222222239E-01
 7.913684845E-01 2.232232243E-01
 7.919580936E-01 2.242242247E-01
 7.925471067E-01 2.252252251E-01
 7.931340337E-01 2.262262255E-01
 7.937191725E-01 2.272272259E-01
 7.943034172E-01 2.282282263E-01
 7.948848605E-01 2.292292267E-01
 7.954663038E-01 2.302302271E-01
 7.960442305E-01 2.312312275E-01
 7.966219187E-01 2.322322279E-01
 7.971974015E-01 2.332332283E-01
 7.977713346E-01 2.342342287E-01
 7.983444929E-01 2.352352291E-01
 7.989147902E-01 2.362362295E-01
 7.994851470E-01 2.372372299E-01
 8.000523448E-01 2.382382452E-01
 8.006189466E-01 2.392392457E-01
 8.011839986E-01 2.402402461E-01
 8.017470837E-01 2.412412465E-01
 8.023100495E-01 2.422422469E-01
 8.028694987E-01 2.432432473E-01
 8.034288883E-01 2.442442477E-01
 8.039864302E-01 2.452452481E-01
 8.045423031E-01 2.462462485E-01
 8.050979972E-01 2.472472489E-01
 8.056502938E-01 2.482482493E-01
 8.062025905E-01 2.492492497E-01
 8.067530990E-01 2.502502501E-01
 8.073017597E-01 2.512512505E-01
 8.078505397E-01 2.522522509E-01
 8.083958626E-01 2.532532513E-01
 8.089411259E-01 2.542542517E-01
 8.094848990E-01 2.552552521E-01
 8.100267053E-01 2.562562525E-01
 8.105685115E-01 2.572572529E-01
 8.111074567E-01 2.582582533E-01
 8.116457462E-01 2.592592537E-01
 8.121833801E-01 2.602602541E-01
 8.127182722E-01 2.612612545E-01
 8.132531047E-01 2.622622550E-01
 8.137860894E-01 2.632632554E-01
 8.143175840E-01 2.642642558E-01
 8.148490787E-01 2.652652562E-01
 8.153775334E-01 2.662662566E-01
 8.159056306E-01 2.672672570E-01
 8.164331317E-01 2.682682574E-01
 8.169578314E-01 2.692692578E-01
 8.174824715E-01 2.702702582E-01
 8.180057406E-01 2.712712586E-01
 8.185270429E-01 2.722722590E-01
 8.190483451E-01 2.732732594E-01
 8.195674419E-01 2.742742598E-01
 8.200854659E-01 2.752752900E-01
 8.206035495E-01 2.762762904E-01
 8.211185932E-01 2.772772908E-01
 8.216332793E-01 2.782782912E-01
 8.221476674E-01 2.792792916E-01
 8.226590753E-01 2.802802920E-01
 8.231704831E-01 2.812812924E-01
 8.236810565E-01 2.822822928E-01
 8.241892457E-01 2.832832932E-01
 8.246973753E-01 2.842842937E-01
 8.252043128E-01 2.852852941E-01
 8.257092237E-01 2.862862945E-01
 8.262140751E-01 2.872872949E-01
 8.267174959E-01 2.882882953E-01
 8.272190690E-01 2.892892957E-01
 8.277207613E-01 2.902902961E-01
 8.282206059E-01 2.912912965E-01
 8.287191391E-01 2.922922969E-01
 8.292175531E-01 2.932932973E-01
 8.297141194E-01 2.942942977E-01
 8.302093744E-01 2.952952981E-01
 8.307045698E-01 2.962962985E-01
 8.311978579E-01 2.972972989E-01
 8.316898942E-01 2.982982993E-01
 8.321819901E-01 2.992992997E-01
 8.326722383E-01 3.003003001E-01
 8.331610560E-01 3.013013005E-01
 8.336499333E-01 3.023023009E-01
 8.341371417E-01 3.033033013E-01
 8.346228600E-01 3.043043017E-01
 8.351085782E-01 3.053053021E-01
 8.355928659E-01 3.063063025E-01
 8.360754251E-01 3.073073030E-01
 8.365580440E-01 3.083083034E-01
 8.370395303E-01 3.093093038E-01
 8.375190496E-01 3.103103042E-01
 8.379984498E-01 3.113113046E-01
 8.384773135E-01 3.123123050E-01
 8.389536738E-01 3.133133054E-01
 8.394299746E-01 3.143143058E-01
 8.399062157E-01 3.153153062E-01
 8.403794765E-01 3.163163066E-01
 8.408526778E-01 3.173173070E-01
 8.413259387E-01 3.183183074E-01
 8.417965770E-01 3.193193078E-01
 8.422667980E-01 3.203203082E-01
 8.427369595E-01 3.213213086E-01
 8.432052732E-01 3.223223090E-01
 8.436723351E-01 3.233233094E-01
 8.441394567E-01 3.243243098E-01
 8.446055055E-01 3.253253400E-01
 8.450695872E-01 3.263263404E-01
 8.455335498E-01 3.273273408E-01
 8.459975719E-01 3.283283412E-01
 8.464584947E-01 3.293293417E-01
 8.469194174E-01 3.303303421E-01
 8.473803997E-01 3.313313425E-01
 8.478392959E-01 3.323323429E-01
 8.482971787E-01 3.333333433E-01
 8.487550616E-01 3.343343437E-01
 8.492121100E-01 3.353353441E-01
 8.496669531E-01 3.363363445E-01
 8.501218557E-01 3.373373449E-01
 8.505766988E-01 3.383383453E-01
 8.510288596E-01 3.393393457E-01
 8.514806628E-01 3.403403461E-01
 8.519324660E-01 3.413413465E-01
 8.523829579E-01 3.423423469E-01
 8.528317809E-01 3.433433473E-01
 8.532805443E-01 3.443443477E-01
 8.537294269E-01 3.453453481E-01
 8.541752100E-01 3.463463485E-01
 8.546210527E-01 3.473473489E-01
 8.550667763E-01 3.483483493E-01
 8.555113077E-01 3.493493497E-01
 8.559540510E-01 3.503503501E-01
 8.563967943E-01 3.513513505E-01
 8.568395972E-01 3.523523510E-01
 8.572796583E-01 3.533533514E-01
 8.577193618E-01 3.543543518E-01
 8.581591249E-01 3.553553522E-01
 8.585979939E-01 3.563563526E-01
 8.590347171E-01 3.573573530E-01
 8.594714999E-01 3.583583534E-01
 8.599082232E-01 3.593593538E-01
 8.603429794E-01 3.603603542E-01
 8.607767224E-01 3.613613546E-01
 8.612104654E-01 3.623623550E-01
 8.616440892E-01 3.633633554E-01
 8.620749116E-01 3.643643558E-01
 8.625056744E-01 3.653653562E-01
 8.629364371E-01 3.663663566E-01
 8.633662462E-01 3.673673570E-01
 8.637940288E-01 3.683683574E-01
 8.642217517E-01 3.693693578E-01
 8.646495342E-01 3.703703582E-01
 8.650755286E-01 3.713713586E-01
 8.655003309E-01 3.723723590E-01
 8.659251332E-01 3.733733594E-01
 8.663499951E-01 3.743743598E-01
 8.667722344E-01 3.753753901E-01
 8.671939969E-01 3.763763905E-01
 8.676158786E-01 3.773773909E-01
 8.680375814E-01 3.783783913E-01
 8.684564233E-01 3.793793917E-01
 8.688752055E-01 3.803803921E-01
 8.692939878E-01 3.813813925E-01
 8.697122931E-01 3.823823929E-01
 8.701282144E-01 3.833833933E-01
 8.705440760E-01 3.843843937E-01
 8.709598184E-01 3.853853941E-01
 8.713748455E-01 3.863863945E-01
 8.717876673E-01 3.873873949E-01
 8.722005486E-01 3.883883953E-01
 8.726134300E-01 3.893893957E-01
 8.730251789E-01 3.903903961E-01
 8.734350801E-01 3.913913965E-01
 8.738449216E-01 3.923923969E-01
 8.742547631E-01 3.933933973E-01
 8.746634722E-01 3.943943977E-01
 8.750703931E-01 3.953953981E-01
 8.754772544E-01 3.963963985E-01
 8.758840561E-01 3.973973989E-01
 8.762897849E-01 3.983983994E-01
 8.766937256E-01 3.993993998E-01
 8.770976067E-01 4.004004002E-01
 8.775015473E-01 4.014014006E-01
 8.779043555E-01 4.024024010E-01
 8.783052564E-01 4.034034014E-01
 8.787060976E-01 4.044044018E-01
 8.791070580E-01 4.054054022E-01
 8.795071244E-01 4.064064026E-01
 8.799050450E-01 4.074074030E-01
 8.803029060E-01 4.084084034E-01
 8.807008266E-01 4.094094038E-01
 8.810983896E-01 4.104104042E-01
 8.814932704E-01 4.114114046E-01
 8.818881512E-01 4.124124050E-01
 8.822830319E-01 4.134134054E-01
 8.826780319E-01 4.144144058E-01
 8.830700517E-01 4.154154062E-01
 8.834618926E-01 4.164164066E-01
 8.838537931E-01 4.174174070E-01
 8.842456341E-01 4.184184074E-01
 8.846353292E-01 4.194194078E-01
 8.850241303E-01 4.204204082E-01
 8.854129910E-01 4.214214087E-01
 8.858018517E-01 4.224224091E-01
 8.861892819E-01 4.234234095E-01
 8.865751624E-01 4.244244099E-01
 8.869609833E-01 4.254254401E-01
 8.873467445E-01 4.264264405E-01
 8.877320886E-01 4.274274409E-01
 8.881149292E-01 4.284284413E-01
 8.884977698E-01 4.294294417E-01
 8.888805509E-01 4.304304421E-01
 8.892633319E-01 4.314314425E-01
 8.896436691E-01 4.324324429E-01
 8.900234103E-01 4.334334433E-01
 8.904031515E-01 4.344344437E-01
 8.907829523E-01 4.354354441E-01
 8.911613822E-01 4.364364445E-01
 8.915380239E-01 4.374374449E-01
 8.919147849E-01 4.384384453E-01
 8.922914267E-01 4.394394457E-01
 8.926680088E-01 4.404404461E-01
 8.930417895E-01 4.414414465E-01
 8.934154510E-01 4.424424469E-01
 8.937890530E-01 4.434434474E-01
 8.941627145E-01 4.444444478E-01
 8.945347071E-01 4.454454482E-01
 8.949053288E-01 4.464464486E-01
 8.952758908E-01 4.474474490E-01
 8.956465125E-01 4.484484494E-01
 8.960169554E-01 4.494494498E-01
 8.963844776E-01 4.504504502E-01
 8.967519403E-01 4.514514506E-01
 8.971194625E-01 4.524524510E-01
 8.974869847E-01 4.534534514E-01
 8.978530765E-01 4.544544518E-01
 8.982174397E-01 4.554554522E-01
 8.985818624E-01 4.564564526E-01
 8.989462852E-01 4.574574530E-01
 8.993106484E-01 4.584584534E-01
 8.996725082E-01 4.594594538E-01
 9.000337720E-01 4.604604542E-01
 9.003950357E-01 4.614614546E-01
 9.007562995E-01 4.624624550E-01
 9.011170268E-01 4.634634554E-01
 9.014751911E-01 4.644644558E-01
 9.018333554E-01 4.654654562E-01
 9.021914601E-01 4.664664567E-01
 9.025496840E-01 4.674674571E-01
 9.029062986E-01 4.684684575E-01
 9.032613635E-01 4.694694579E-01
 9.036163688E-01 4.704704583E-01
 9.039713740E-01 4.714714587E-01
 9.043264389E-01 4.724724591E-01
 9.046791792E-01 4.734734595E-01
 9.050309658E-01 4.744744599E-01
 9.053828716E-01 4.754754901E-01
 9.057346582E-01 4.764764905E-01
 9.060865641E-01 4.774774909E-01
 9.064355493E-01 4.784784913E-01
 9.067841172E-01 4.794794917E-01
 9.071328044E-01 4.804804921E-01
 9.074814320E-01 4.814814925E-01
 9.078299999E-01 4.824824929E-01
 9.081755280E-01 4.834834933E-01
 9.085209370E-01 4.844844937E-01
 9.088663459E-01 4.854854941E-01
 9.092118144E-01 4.864864945E-01
 9.095568061E-01 4.874874949E-01
 9.098991156E-01 4.884884953E-01
 9.102413654E-01 4.894894958E-01
 9.105835557E-01 4.904904962E-01
 9.109258056E-01 4.914914966E-01
 9.112674594E-01 4.924924970E-01
 9.116064906E-01 4.934934974E-01
 9.119454622E-01 4.944944978E-01
 9.122844338E-01 4.954954982E-01
 9.126234055E-01 4.964964986E-01
 9.129618406E-01 4.974974990E-01
 9.132975936E-01 4.984984994E-01
 9.136332870E-01 4.994994998E-01
 9.139689803E-01 5.005005002E-01
 9.143046737E-01 5.015015006E-01
 9.146400690E-01 5.025025010E-01
 9.149725437E-01 5.035035014E-01
 9.153049588E-01 5.045045018E-01
 9.156373739E-01 5.055055022E-01
 9.159697890E-01 5.065065026E-01
 9.163022041E-01 5.075075030E-01
 9.166314006E-01 5.085085034E-01
 9.169605374E-01 5.095095038E-01
 9.172896147E-01 5.105105042E-01
 9.176187515E-01 5.115115047E-01
 9.179478884E-01 5.125125051E-01
 9.182742238E-01 5.135135055E-01
 9.185999632E-01 5.145145059E-01
 9.189257026E-01 5.155155063E-01
 9.192515016E-01 5.165165067E-01
 9.195773005E-01 5.175175071E-01
 9.199010134E-01 5.185185075E-01
 9.202233553E-01 5.195195079E-01
 9.205458164E-01 5.205205083E-01
 9.208681583E-01 5.215215087E-01
 9.211906195E-01 5.225225091E-01
 9.215118289E-01 5.235235095E-01
 9.218308330E-01 5.245245099E-01
 9.221498966E-01 5.255255103E-01
 9.224688411E-01 5.265265107E-01
 9.227878451E-01 5.275275111E-01
 9.231067300E-01 5.285285115E-01
 9.234224558E-01 5.295295119E-01
 9.237379432E-01 5.305305123E-01
 9.240536094E-01 5.315315127E-01
 9.243690968E-01 5.325325131E-01
 9.246848226E-01 5.335335135E-01
 9.249980450E-01 5.345345140E-01
 9.253102541E-01 5.355355144E-01
 9.256223440E-01 5.365365148E-01
 9.259344935E-01 5.375375152E-01
 9.262467027E-01 5.385385156E-01
 9.265579581E-01 5.395395160E-01
 9.268667102E-01 5.405405164E-01
 9.271753430E-01 5.415415168E-01
 9.274839759E-01 5.425425172E-01
 9.277926087E-01 5.435435176E-01
 9.281014204E-01 5.445445180E-01
 9.284073710E-01 5.455455184E-01
 9.287125468E-01 5.465465188E-01
 9.290177226E-01 5.475475192E-01
 9.293228388E-01 5.485485196E-01
 9.296280146E-01 5.495495200E-01
 9.299323559E-01 5.505505800E-01
 9.302340150E-01 5.515515804E-01
 9.305356145E-01 5.525525808E-01
 9.308372140E-01 5.535535812E-01
 9.311388135E-01 5.545545816E-01
 9.314404726E-01 5.555555820E-01
 9.317398667E-01 5.565565825E-01
 9.320378900E-01 5.575575829E-01
 9.323359132E-01 5.585585833E-01
 9.326339364E-01 5.595595837E-01
 9.329319000E-01 5.605605841E-01
 9.332300425E-01 5.615615845E-01
 9.335244894E-01 5.625625849E-01
 9.338189363E-01 5.635635853E-01
 9.341133833E-01 5.645645857E-01
 9.344077110E-01 5.655655861E-01
 9.347022176E-01 5.665665865E-01
 9.349955916E-01 5.675675869E-01
 9.352864623E-01 5.685685873E-01
 9.355771542E-01 5.695695877E-01
 9.358679056E-01 5.705705881E-01
 9.361587167E-01 5.715715885E-01
 9.364495277E-01 5.725725889E-01
 9.367384315E-01 5.735735893E-01
 9.370255470E-01 5.745745897E-01
 9.373125434E-01 5.755755901E-01
 9.375996590E-01 5.765765905E-01
 9.378867149E-01 5.775775909E-01
 9.381738901E-01 5.785785913E-01
 9.384583831E-01 5.795795918E-01
 9.387418032E-01 5.805805922E-01
 9.390250444E-01 5.815815926E-01
 9.393084049E-01 5.825825930E-01
 9.395917654E-01 5.835835934E-01
 9.398751855E-01 5.845845938E-01
 9.401555657E-01 5.855855942E-01
 9.404351711E-01 5.865865946E-01
 9.407147169E-01 5.875875950E-01
 9.409942031E-01 5.885885954E-01
 9.412738085E-01 5.895895958E-01
 9.415535331E-01 5.905905962E-01
 9.418298006E-01 5.915915966E-01
 9.421056509E-01 5.925925970E-01
 9.423813820E-01 5.935935974E-01
 9.426571131E-01 5.945945978E-01
 9.429328442E-01 5.955955982E-01
 9.432087541E-01 5.965965986E-01
 9.434812665E-01 5.975975990E-01
 9.437531829E-01 5.985985994E-01
 9.440250993E-01 5.995995998E-01
 9.442970157E-01 6.006006002E-01
 9.445689321E-01 6.016016006E-01
 9.448409677E-01 6.026026011E-01
 9.451098442E-01 6.036036015E-01
 9.453778863E-01 6.046046019E-01
 9.456458688E-01 6.056056023E-01
 9.459139109E-01 6.066066027E-01
 9.461818933E-01 6.076076031E-01
 9.464500546E-01 6.086086035E-01
 9.467154741E-01 6.096096039E-01
 9.469796419E-01 6.106106043E-01
 9.472436905E-01 6.116116047E-01
 9.475077987E-01 6.126126051E-01
 9.477717876E-01 6.136136055E-01
 9.480359554E-01 6.146146059E-01
 9.482982159E-01 6.156156063E-01
 9.485583901E-01 6.166166067E-01
 9.488184452E-01 6.176176071E-01
 9.490785599E-01 6.186186075E-01
 9.493386149E-01 6.196196079E-01
 9.495987892E-01 6.206206083E-01
 9.498580694E-01 6.216216087E-01
 9.501141906E-01 6.226226091E-01
 9.503703117E-01 6.236236095E-01
 9.506263137E-01 6.246246099E-01
 9.508824348E-01 6.256256104E-01
 9.511384964E-01 6.266266108E-01
 9.513946772E-01 6.276276112E-01
 9.516471028E-01 6.286286116E-01
 9.518991113E-01 6.296296120E-01
 9.521510601E-01 6.306306124E-01
 9.524030089E-01 6.316316128E-01
 9.526550174E-01 6.326326132E-01
 9.529070258E-01 6.336336136E-01
 9.531569481E-01 6.346346140E-01
 9.534048438E-01 6.356356144E-01
 9.536527395E-01 6.366366148E-01
 9.539005756E-01 6.376376152E-01
 9.541484714E-01 6.386386156E-01
 9.543963075E-01 6.396396160E-01
 9.546439052E-01 6.406406164E-01
 9.548876882E-01 6.416416168E-01
 9.551314116E-01 6.426426172E-01
 9.553750753E-01 6.436436176E-01
 9.556186795E-01 6.446446180E-01
 9.558623433E-01 6.456456184E-01
 9.561061263E-01 6.466466188E-01
 9.563474655E-01 6.476476192E-01
 9.565869570E-01 6.486486197E-01
 9.568263888E-01 6.496496201E-01
 9.570658803E-01 6.506506801E-01
 9.573053122E-01 6.516516805E-01
 9.575447440E-01 6.526526809E-01
 9.577843547E-01 6.536536813E-01
 9.580196142E-01 6.546546817E-01
 9.582548141E-01 6.556556821E-01
 9.584900141E-01 6.566566825E-01
 9.587251544E-01 6.576576829E-01
 9.589602947E-01 6.586586833E-01
 9.591954947E-01 6.596596837E-01
 9.594293237E-01 6.606606841E-01
 9.596602321E-01 6.616616845E-01
 9.598910213E-01 6.626626849E-01
 9.601218700E-01 6.636636853E-01
 9.603526592E-01 6.646646857E-01
 9.605834484E-01 6.656656861E-01
 9.608143568E-01 6.666666865E-01
 9.610424638E-01 6.676676869E-01
 9.612690210E-01 6.686686873E-01
 9.614954591E-01 6.696696877E-01
 9.617218971E-01 6.706706882E-01
 9.619483352E-01 6.716716886E-01
 9.621748328E-01 6.726726890E-01
 9.624013305E-01 6.736736894E-01
 9.626241326E-01 6.746746898E-01
 9.628461003E-01 6.756756902E-01
 9.630681276E-01 6.766766906E-01
 9.632900953E-01 6.776776910E-01
 9.635120630E-01 6.786786914E-01
 9.637340903E-01 6.796796918E-01
 9.639561176E-01 6.806806922E-01
 9.641737342E-01 6.816816926E-01
 9.643912911E-01 6.826826930E-01
 9.646087289E-01 6.836836934E-01
 9.648262858E-01 6.846846938E-01
 9.650437236E-01 6.856856942E-01
 9.652612805E-01 6.866866946E-01
 9.654784799E-01 6.876876950E-01
 9.656915069E-01 6.886886954E-01
 9.659044147E-01 6.896896958E-01
 9.661173820E-01 6.906906962E-01
 9.663302302E-01 6.916916966E-01
 9.665431976E-01 6.926926970E-01
 9.667561650E-01 6.936936975E-01
 9.669687152E-01 6.946946979E-01
 9.671772122E-01 6.956956983E-01
 9.673855305E-01 6.966966987E-01
 9.675937891E-01 6.976976991E-01
 9.678021669E-01 6.986986995E-01
 9.680104852E-01 6.996996999E-01
 9.682188034E-01 7.007007003E-01
 9.684270024E-01 7.017017007E-01
 9.686307907E-01 7.027027011E-01
 9.688344598E-01 7.037037015E-01
 9.690381289E-01 7.047047019E-01
 9.692416787E-01 7.057057023E-01
 9.694454074E-01 7.067067027E-01
 9.696489573E-01 7.077077031E-01
 9.698528051E-01 7.087087035E-01
 9.700521827E-01 7.097097039E-01
 9.702511430E-01 7.107107043E-01
 9.704500437E-01 7.117117047E-01
 9.706489444E-01 7.127127051E-01
 9.708478451E-01 7.137137055E-01
 9.710468054E-01 7.147147059E-01
 9.712457657E-01 7.157157063E-01
 9.714414477E-01 7.167167068E-01
 9.716356397E-01 7.177177072E-01
 9.718297124E-01 7.187187076E-01
 9.720237851E-01 7.197197080E-01
 9.722179174E-01 7.207207084E-01
 9.724120498E-01 7.217217088E-01
 9.726062417E-01 7.227227092E-01
 9.727984071E-01 7.237237096E-01
 9.729877710E-01 7.247247100E-01
 9.731770158E-01 7.257257104E-01
 9.733662605E-01 7.267267108E-01
 9.735555053E-01 7.277277112E-01
 9.737447500E-01 7.287287116E-01
 9.739340544E-01 7.297297120E-01
 9.741230011E-01 7.307307124E-01
 9.743075371E-01 7.317317128E-01
 9.744918942E-01 7.327327132E-01
 9.746761918E-01 7.337337136E-01
 9.748605490E-01 7.347347140E-01
 9.750449061E-01 7.357357144E-01
 9.752292037E-01 7.367367148E-01
 9.754136801E-01 7.377377152E-01
 9.755949378E-01 7.387387156E-01
 9.757743478E-01 7.397397161E-01
 9.759536982E-01 7.407407165E-01
 9.761331081E-01 7.417417169E-01
 9.763124585E-01 7.427427173E-01
 9.764918089E-01 7.437437177E-01
 9.766712189E-01 7.447447181E-01
 9.768499732E-01 7.457457185E-01
 9.770243764E-01 7.467467189E-01
 9.771987796E-01 7.477477193E-01
 9.773730636E-01 7.487487197E-01
 9.775473475E-01 7.497497201E-01
 9.777216911E-01 7.507507801E-01
 9.778960347E-01 7.517517805E-01
 9.780704975E-01 7.527527809E-01
 9.782420397E-01 7.537537813E-01
 9.784113169E-01 7.547547817E-01
 9.785805345E-01 7.557557821E-01
 9.787497520E-01 7.567567825E-01
 9.789189696E-01 7.577577829E-01
 9.790881872E-01 7.587587833E-01
 9.792574644E-01 7.597597837E-01
 9.794267416E-01 7.607607841E-01
 9.795914292E-01 7.617617846E-01
 9.797555208E-01 7.627627850E-01
 9.799196124E-01 7.637637854E-01
 9.800836444E-01 7.647647858E-01
 9.802476764E-01 7.657657862E-01
 9.804117680E-01 7.667667866E-01
 9.805758595E-01 7.677677870E-01
 9.807391763E-01 7.687687874E-01
 9.808980823E-01 7.697697878E-01
 9.810569286E-01 7.707707882E-01
 9.812157750E-01 7.717717886E-01
 9.813746214E-01 7.727727890E-01
 9.815334082E-01 7.737737894E-01
 9.816922545E-01 7.747747898E-01
 9.818512201E-01 7.757757902E-01
 9.820082188E-01 7.767767906E-01
 9.821619391E-01 7.777777910E-01
 9.823154807E-01 7.787787914E-01
 9.824690223E-01 7.797797918E-01
 9.826226234E-01 7.807807922E-01
 9.827761650E-01 7.817817926E-01
 9.829297066E-01 7.827827930E-01
 9.830833077E-01 7.837837934E-01
 9.832345247E-01 7.847847939E-01
 9.833828211E-01 7.857857943E-01
 9.835309982E-01 7.867867947E-01
 9.836792946E-01 7.877877951E-01
 9.838274717E-01 7.887887955E-01
 9.839756489E-01 7.897897959E-01
 9.841238856E-01 7.907907963E-01
 9.842722416E-01 7.917917967E-01
 9.844178557E-01 7.927927971E-01
 9.845607281E-01 7.937937975E-01
 9.847035408E-01 7.947947979E-01
 9.848462939E-01 7.957957983E-01
 9.849891067E-01 7.967967987E-01
 9.851319194E-01 7.977977991E-01
 9.852747917E-01 7.987987995E-01
 9.854176641E-01 7.997997999E-01
 9.855580926E-01 8.008008003E-01
 9.856955409E-01 8.018018007E-01
 9.858328700E-01 8.028028011E-01
 9.859702587E-01 8.038038015E-01
 9.861075878E-01 8.048048019E-01
 9.862449765E-01 8.058058023E-01
 9.863822460E-01 8.068068027E-01
 9.865196943E-01 8.078078032E-01
 9.866554141E-01 8.088088036E-01
 9.867873788E-01 8.098098040E-01
 9.869191647E-01 8.108108044E-01
 9.870510101E-01 8.118118048E-01
 9.871828556E-01 8.128128052E-01
 9.873147011E-01 8.138138056E-01
 9.874464869E-01 8.148148060E-01
 9.875783324E-01 8.158158064E-01
 9.877098203E-01 8.168168068E-01
 9.878361225E-01 8.178178072E-01
 9.879624248E-01 8.188188076E-01
 9.880886674E-01 8.198198080E-01
 9.882148504E-01 8.208208084E-01
 9.883410931E-01 8.218218088E-01
 9.884673357E-01 8.228228092E-01
 9.885936379E-01 8.238238096E-01
 9.887199402E-01 8.248248100E-01
 9.888418317E-01 8.258258104E-01
 9.889625311E-01 8.268268108E-01
 9.890831113E-01 8.278278112E-01
 9.892036915E-01 8.288288116E-01
 9.893242717E-01 8.298298120E-01
 9.894449115E-01 8.308308125E-01
 9.895654917E-01 8.318318129E-01
 9.896861315E-01 8.328328133E-01
 9.898045659E-01 8.338338137E-01
 9.899196029E-01 8.348348141E-01
 9.900344610E-01 8.358358145E-01
 9.901493788E-01 8.368368149E-01
 9.902643561E-01 8.378378153E-01
 9.903792143E-01 8.388388157E-01
 9.904941320E-01 8.398398161E-01
 9.906091094E-01 8.408408165E-01
 9.907240868E-01 8.418418169E-01
 9.908337593E-01 8.428428173E-01
 9.909429550E-01 8.438438177E-01
 9.910520911E-01 8.448448181E-01
 9.911612868E-01 8.458458185E-01
 9.912704229E-01 8.468468189E-01
 9.913796186E-01 8.478478193E-01
 9.914888144E-01 8.488488197E-01
 9.915980101E-01 8.498498201E-01
 9.917050600E-01 8.508508801E-01
 9.918085337E-01 8.518518806E-01
 9.919118881E-01 8.528528810E-01
 9.920152426E-01 8.538538814E-01
 9.921185970E-01 8.548548818E-01
 9.922220111E-01 8.558558822E-01
 9.923253655E-01 8.568568826E-01
 9.924287200E-01 8.578578830E-01
 9.925321937E-01 8.588588834E-01
 9.926312566E-01 8.598598838E-01
 9.927288890E-01 8.608608842E-01
 9.928264022E-01 8.618618846E-01
 9.929239154E-01 8.628628850E-01
 9.930214286E-01 8.638638854E-01
 9.931189418E-01 8.648648858E-01
 9.932163358E-01 8.658658862E-01
 9.933139682E-01 8.668668866E-01
 9.934115410E-01 8.678678870E-01
 9.935032129E-01 8.688688874E-01
 9.935948253E-01 8.698698878E-01
 9.936864376E-01 8.708708882E-01
 9.937780499E-01 8.718718886E-01
 9.938696027E-01 8.728728890E-01
 9.939612150E-01 8.738738894E-01
 9.940528870E-01 8.748748899E-01
 9.941444993E-01 8.758758903E-01
 9.942351580E-01 8.768768907E-01
 9.943208098E-01 8.778778911E-01
 9.944064617E-01 8.788788915E-01
 9.944921136E-01 8.798798919E-01
 9.945777059E-01 8.808808923E-01
 9.946633577E-01 8.818818927E-01
 9.947489500E-01 8.828828931E-01
 9.948346615E-01 8.838838935E-01
 9.949203134E-01 8.848848939E-01
 9.950044155E-01 8.858858943E-01
 9.950841069E-01 8.868868947E-01
 9.951637983E-01 8.878878951E-01
 9.952433705E-01 8.888888955E-01
 9.953230023E-01 8.898898959E-01
 9.954025745E-01 8.908908963E-01
 9.954822659E-01 8.918918967E-01
 9.955618382E-01 8.928928971E-01
 9.956415296E-01 8.938938975E-01
 9.957196116E-01 8.948948979E-01
 9.957932830E-01 8.958958983E-01
 9.958667755E-01 8.968968987E-01
 9.959403872E-01 8.978978992E-01
 9.960139394E-01 8.988988996E-01
 9.960874915E-01 8.998999000E-01
 9.961611032E-01 9.009009004E-01
 9.962345958E-01 9.019019008E-01
 9.963082075E-01 9.029029012E-01
 9.963808060E-01 9.039039016E-01
 9.964482784E-01 9.049049020E-01
 9.965157509E-01 9.059059024E-01
 9.965832233E-01 9.069069028E-01